Title=" Lid Driven Flow"
VARIABLES="X","Y","U","V","psi","xi"
ZONE T= "BOX", I= 201, J=201, F=POINT
0 0 0 0 0.00188867 0
0.005 0 0 0 0 0
0.01 0 0 0 0 0
0.015 0 0 0 0 161.89
0.02 0 0 0 0 176.127
0.025 0 0 0 0 155.618
0.03 0 0 0 0 133.243
0.035 0 0 0 0 115.74
0.04 0 0 0 0 102.901
0.045 0 0 0 0 93.3791
0.05 0 0 0 0 86.0631
0.055 0 0 0 0 80.2192
0.06 0 0 0 0 75.3887
0.065 0 0 0 0 71.283
0.07 0 0 0 0 67.7149
0.075 0 0 0 0 64.5584
0.08 0 0 0 0 61.7259
0.085 0 0 0 0 59.1548
0.09 0 0 0 0 56.799
0.095 0 0 0 0 54.624
0.1 0 0 0 0 52.6035
0.105 0 0 0 0 50.7171
0.11 0 0 0 0 48.9486
0.115 0 0 0 0 47.2852
0.12 0 0 0 0 45.7162
0.125 0 0 0 0 44.2329
0.13 0 0 0 0 42.828
0.135 0 0 0 0 41.4951
0.14 0 0 0 0 40.2289
0.145 0 0 0 0 39.0245
0.15 0 0 0 0 37.8776
0.155 0 0 0 0 36.7843
0.16 0 0 0 0 35.7413
0.165 0 0 0 0 34.7452
0.17 0 0 0 0 33.793
0.175 0 0 0 0 32.882
0.18 0 0 0 0 32.0096
0.185 0 0 0 0 31.1734
0.19 0 0 0 0 30.3711
0.195 0 0 0 0 29.6005
0.2 0 0 0 0 28.8595
0.205 0 0 0 0 28.1463
0.21 0 0 0 0 27.459
0.215 0 0 0 0 26.796
0.22 0 0 0 0 26.1555
0.225 0 0 0 0 25.536
0.23 0 0 0 0 24.9361
0.235 0 0 0 0 24.3543
0.24 0 0 0 0 23.7895
0.245 0 0 0 0 23.2402
0.25 0 0 0 0 22.7055
0.255 0 0 0 0 22.1842
0.26 0 0 0 0 21.6752
0.265 0 0 0 0 21.1777
0.27 0 0 0 0 20.6907
0.275 0 0 0 0 20.2134
0.28 0 0 0 0 19.7449
0.285 0 0 0 0 19.2847
0.29 0 0 0 0 18.832
0.295 0 0 0 0 18.3863
0.3 0 0 0 0 17.9468
0.305 0 0 0 0 17.5132
0.31 0 0 0 0 17.085
0.315 0 0 0 0 16.6618
0.32 0 0 0 0 16.2431
0.325 0 0 0 0 15.8287
0.33 0 0 0 0 15.4183
0.335 0 0 0 0 15.0115
0.34 0 0 0 0 14.6083
0.345 0 0 0 0 14.2085
0.35 0 0 0 0 13.8118
0.355 0 0 0 0 13.4183
0.36 0 0 0 0 13.0278
0.365 0 0 0 0 12.6403
0.37 0 0 0 0 12.2559
0.375 0 0 0 0 11.8744
0.38 0 0 0 0 11.4961
0.385 0 0 0 0 11.1209
0.39 0 0 0 0 10.749
0.395 0 0 0 0 10.3804
0.4 0 0 0 0 10.0154
0.405 0 0 0 0 9.65415
0.41 0 0 0 0 9.29672
0.415 0 0 0 0 8.94336
0.42 0 0 0 0 8.59426
0.425 0 0 0 0 8.24965
0.43 0 0 0 0 7.90975
0.435 0 0 0 0 7.57479
0.44 0 0 0 0 7.245
0.445 0 0 0 0 6.92062
0.45 0 0 0 0 6.60189
0.455 0 0 0 0 6.28903
0.46 0 0 0 0 5.98228
0.465 0 0 0 0 5.68186
0.47 0 0 0 0 5.38799
0.475 0 0 0 0 5.10087
0.48 0 0 0 0 4.82071
0.485 0 0 0 0 4.54768
0.49 0 0 0 0 4.28195
0.495 0 0 0 0 4.02367
0.5 0 0 0 0 3.77298
0.505 0 0 0 0 3.53
0.51 0 0 0 0 3.29482
0.515 0 0 0 0 3.06753
0.52 0 0 0 0 2.84819
0.525 0 0 0 0 2.63684
0.53 0 0 0 0 2.43349
0.535 0 0 0 0 2.23815
0.54 0 0 0 0 2.0508
0.545 0 0 0 0 1.8714
0.55 0 0 0 0 1.69989
0.555 0 0 0 0 1.53619
0.56 0 0 0 0 1.38021
0.565 0 0 0 0 1.23183
0.57 0 0 0 0 1.09094
0.575 0 0 0 0 0.957386
0.58 0 0 0 0 0.831012
0.585 0 0 0 0 0.711653
0.59 0 0 0 0 0.59913
0.595 0 0 0 0 0.493252
0.6 0 0 0 0 0.393824
0.605 0 0 0 0 0.30064
0.61 0 0 0 0 0.213489
0.615 0 0 0 0 0.132156
0.62 0 0 0 0 0.0564214
0.625 0 0 0 0 -0.0139375
0.63 0 0 0 0 -0.0791439
0.635 0 0 0 0 -0.139422
0.64 0 0 0 0 -0.194997
0.645 0 0 0 0 -0.246091
0.65 0 0 0 0 -0.292925
0.655 0 0 0 0 -0.335719
0.66 0 0 0 0 -0.374689
0.665 0 0 0 0 -0.410048
0.67 0 0 0 0 -0.442004
0.675 0 0 0 0 -0.470762
0.68 0 0 0 0 -0.496522
0.685 0 0 0 0 -0.519479
0.69 0 0 0 0 -0.539821
0.695 0 0 0 0 -0.557732
0.7 0 0 0 0 -0.573389
0.705 0 0 0 0 -0.586961
0.71 0 0 0 0 -0.59861
0.715 0 0 0 0 -0.608491
0.72 0 0 0 0 -0.61675
0.725 0 0 0 0 -0.623524
0.73 0 0 0 0 -0.628942
0.735 0 0 0 0 -0.633121
0.74 0 0 0 0 -0.63617
0.745 0 0 0 0 -0.638188
0.75 0 0 0 0 -0.63926
0.755 0 0 0 0 -0.639464
0.76 0 0 0 0 -0.638866
0.765 0 0 0 0 -0.637521
0.77 0 0 0 0 -0.635474
0.775 0 0 0 0 -0.632761
0.78 0 0 0 0 -0.629407
0.785 0 0 0 0 -0.625428
0.79 0 0 0 0 -0.620834
0.795 0 0 0 0 -0.615624
0.8 0 0 0 0 -0.609793
0.805 0 0 0 0 -0.60333
0.81 0 0 0 0 -0.596217
0.815 0 0 0 0 -0.588435
0.82 0 0 0 0 -0.57996
0.825 0 0 0 0 -0.570769
0.83 0 0 0 0 -0.560836
0.835 0 0 0 0 -0.550136
0.84 0 0 0 0 -0.538647
0.845 0 0 0 0 -0.526346
0.85 0 0 0 0 -0.513219
0.855 0 0 0 0 -0.499251
0.86 0 0 0 0 -0.484436
0.865 0 0 0 0 -0.468773
0.87 0 0 0 0 -0.452267
0.875 0 0 0 0 -0.434934
0.88 0 0 0 0 -0.416794
0.885 0 0 0 0 -0.39788
0.89 0 0 0 0 -0.378233
0.895 0 0 0 0 -0.357903
0.9 0 0 0 0 -0.336955
0.905 0 0 0 0 -0.31546
0.91 0 0 0 0 -0.293504
0.915 0 0 0 0 -0.271183
0.92 0 0 0 0 -0.248608
0.925 0 0 0 0 -0.2259
0.93 0 0 0 0 -0.203195
0.935 0 0 0 0 -0.180642
0.94 0 0 0 0 -0.158406
0.945 0 0 0 0 -0.136664
0.95 0 0 0 0 -0.115612
0.955 0 0 0 0 -0.09546
0.96 0 0 0 0 -0.0764369
0.965 0 0 0 0 -0.0587894
0.97 0 0 0 0 -0.0427824
0.975 0 0 0 0 -0.0286983
0.98 0 0 0 0 -0.0168317
0.985 0 0 0 0 -0.00747887
0.99 0 0 0 0 -0.000908691
0.995 0 0 0 0 0.00270238
1 0 0 0 0 0.00342067
0 0.005 0 0 0 0
0.005 0.005 0 0 0 0
0.01 0.005 0 0 0 73.7265
0.015 0.005 0 0 0 62.0282
0.02 0.005 0 0 0 45.6279
0.025 0.005 0 0 0 33.831
0.03 0.005 0 0 0 25.9409
0.035 0.005 0 0 0 20.555
0.04 0.005 0 0 0 16.7224
0.045 0.005 0 0 0 13.8809
0.05 0.005 0 0 0 11.7016
0.055 0.005 0 0 0 9.98571
0.06 0.005 0 0 0 8.6079
0.065 0.005 0 0 0 7.48507
0.07 0.005 0 0 0 6.55977
0.075 0.005 0 0 0 5.79072
0.08 0.005 0 0 0 5.14733
0.085 0.005 0 0 0 4.60632
0.09 0.005 0 0 0 4.14961
0.095 0.005 0 0 0 3.76292
0.1 0.005 0 0 0 3.43481
0.105 0.005 0 0 0 3.15603
0.11 0.005 0 0 0 2.91902
0.115 0.005 0 0 0 2.71756
0.12 0.005 0 0 0 2.5465
0.125 0.005 0 0 0 2.40156
0.13 0.005 0 0 0 2.27915
0.135 0.005 0 0 0 2.17626
0.14 0.005 0 0 0 2.09036
0.145 0.005 0 0 0 2.0193
0.15 0.005 0 0 0 1.96126
0.155 0.005 0 0 0 1.91469
0.16 0.005 0 0 0 1.87827
0.165 0.005 0 0 0 1.85085
0.17 0.005 0 0 0 1.83147
0.175 0.005 0 0 0 1.81929
0.18 0.005 0 0 0 1.81358
0.185 0.005 0 0 0 1.81372
0.19 0.005 0 0 0 1.81914
0.195 0.005 0 0 0 1.82939
0.2 0.005 0 0 0 1.84403
0.205 0.005 0 0 0 1.86269
0.21 0.005 0 0 0 1.88505
0.215 0.005 0 0 0 1.91081
0.22 0.005 0 0 0 1.93971
0.225 0.005 0 0 0 1.97152
0.23 0.005 0 0 0 2.00601
0.235 0.005 0 0 0 2.04298
0.24 0.005 0 0 0 2.08226
0.245 0.005 0 0 0 2.12367
0.25 0.005 0 0 0 2.16705
0.255 0.005 0 0 0 2.21225
0.26 0.005 0 0 0 2.25912
0.265 0.005 0 0 0 2.30752
0.27 0.005 0 0 0 2.35731
0.275 0.005 0 0 0 2.40836
0.28 0.005 0 0 0 2.46054
0.285 0.005 0 0 0 2.51372
0.29 0.005 0 0 0 2.56777
0.295 0.005 0 0 0 2.62256
0.3 0.005 0 0 0 2.67797
0.305 0.005 0 0 0 2.73387
0.31 0.005 0 0 0 2.79012
0.315 0.005 0 0 0 2.84661
0.32 0.005 0 0 0 2.90321
0.325 0.005 0 0 0 2.95977
0.33 0.005 0 0 0 3.01619
0.335 0.005 0 0 0 3.07232
0.34 0.005 0 0 0 3.12804
0.345 0.005 0 0 0 3.18321
0.35 0.005 0 0 0 3.23771
0.355 0.005 0 0 0 3.2914
0.36 0.005 0 0 0 3.34416
0.365 0.005 0 0 0 3.39585
0.37 0.005 0 0 0 3.44636
0.375 0.005 0 0 0 3.49554
0.38 0.005 0 0 0 3.54328
0.385 0.005 0 0 0 3.58945
0.39 0.005 0 0 0 3.63393
0.395 0.005 0 0 0 3.6766
0.4 0.005 0 0 0 3.71735
0.405 0.005 0 0 0 3.75605
0.41 0.005 0 0 0 3.79261
0.415 0.005 0 0 0 3.82691
0.42 0.005 0 0 0 3.85886
0.425 0.005 0 0 0 3.88835
0.43 0.005 0 0 0 3.91529
0.435 0.005 0 0 0 3.9396
0.44 0.005 0 0 0 3.9612
0.445 0.005 0 0 0 3.98
0.45 0.005 0 0 0 3.99595
0.455 0.005 0 0 0 4.00897
0.46 0.005 0 0 0 4.01901
0.465 0.005 0 0 0 4.02602
0.47 0.005 0 0 0 4.02995
0.475 0.005 0 0 0 4.03079
0.48 0.005 0 0 0 4.02848
0.485 0.005 0 0 0 4.02302
0.49 0.005 0 0 0 4.01439
0.495 0.005 0 0 0 4.0026
0.5 0.005 0 0 0 3.98763
0.505 0.005 0 0 0 3.96951
0.51 0.005 0 0 0 3.94825
0.515 0.005 0 0 0 3.92389
0.52 0.005 0 0 0 3.89645
0.525 0.005 0 0 0 3.86598
0.53 0.005 0 0 0 3.83253
0.535 0.005 0 0 0 3.79616
0.54 0.005 0 0 0 3.75694
0.545 0.005 0 0 0 3.71494
0.55 0.005 0 0 0 3.67024
0.555 0.005 0 0 0 3.62292
0.56 0.005 0 0 0 3.57308
0.565 0.005 0 0 0 3.52081
0.57 0.005 0 0 0 3.46623
0.575 0.005 0 0 0 3.40944
0.58 0.005 0 0 0 3.35055
0.585 0.005 0 0 0 3.28969
0.59 0.005 0 0 0 3.22697
0.595 0.005 0 0 0 3.16252
0.6 0.005 0 0 0 3.09648
0.605 0.005 0 0 0 3.02897
0.61 0.005 0 0 0 2.96012
0.615 0.005 0 0 0 2.89008
0.62 0.005 0 0 0 2.81897
0.625 0.005 0 0 0 2.74694
0.63 0.005 0 0 0 2.67412
0.635 0.005 0 0 0 2.60065
0.64 0.005 0 0 0 2.52666
0.645 0.005 0 0 0 2.45229
0.65 0.005 0 0 0 2.37767
0.655 0.005 0 0 0 2.30293
0.66 0.005 0 0 0 2.2282
0.665 0.005 0 0 0 2.1536
0.67 0.005 0 0 0 2.07926
0.675 0.005 0 0 0 2.00529
0.68 0.005 0 0 0 1.9318
0.685 0.005 0 0 0 1.85891
0.69 0.005 0 0 0 1.78672
0.695 0.005 0 0 0 1.71534
0.7 0.005 0 0 0 1.64484
0.705 0.005 0 0 0 1.57533
0.71 0.005 0 0 0 1.50689
0.715 0.005 0 0 0 1.4396
0.72 0.005 0 0 0 1.37353
0.725 0.005 0 0 0 1.30876
0.73 0.005 0 0 0 1.24534
0.735 0.005 0 0 0 1.18332
0.74 0.005 0 0 0 1.12277
0.745 0.005 0 0 0 1.06374
0.75 0.005 0 0 0 1.00625
0.755 0.005 0 0 0 0.950342
0.76 0.005 0 0 0 0.896056
0.765 0.005 0 0 0 0.843411
0.77 0.005 0 0 0 0.792431
0.775 0.005 0 0 0 0.743129
0.78 0.005 0 0 0 0.695519
0.785 0.005 0 0 0 0.649608
0.79 0.005 0 0 0 0.6054
0.795 0.005 0 0 0 0.562894
0.8 0.005 0 0 0 0.522087
0.805 0.005 0 0 0 0.482971
0.81 0.005 0 0 0 0.445537
0.815 0.005 0 0 0 0.40977
0.82 0.005 0 0 0 0.375655
0.825 0.005 0 0 0 0.343174
0.83 0.005 0 0 0 0.312307
0.835 0.005 0 0 0 0.28303
0.84 0.005 0 0 0 0.25532
0.845 0.005 0 0 0 0.229151
0.85 0.005 0 0 0 0.204496
0.855 0.005 0 0 0 0.181326
0.86 0.005 0 0 0 0.159613
0.865 0.005 0 0 0 0.139326
0.87 0.005 0 0 0 0.120435
0.875 0.005 0 0 0 0.102908
0.88 0.005 0 0 0 0.0867147
0.885 0.005 0 0 0 0.0718228
0.89 0.005 0 0 0 0.0582007
0.895 0.005 0 0 0 0.0458164
0.9 0.005 0 0 0 0.0346382
0.905 0.005 0 0 0 0.024634
0.91 0.005 0 0 0 0.0157721
0.915 0.005 0 0 0 0.00802034
0.92 0.005 0 0 0 0.00134644
0.925 0.005 0 0 0 -0.00428239
0.93 0.005 0 0 0 -0.00889979
0.935 0.005 0 0 0 -0.0125407
0.94 0.005 0 0 0 -0.0152421
0.945 0.005 0 0 0 -0.0170438
0.95 0.005 0 0 0 -0.0179899
0.955 0.005 0 0 0 -0.0181304
0.96 0.005 0 0 0 -0.0175236
0.965 0.005 0 0 0 -0.01624
0.97 0.005 0 0 0 -0.0143665
0.975 0.005 0 0 0 -0.0120142
0.98 0.005 0 0 0 -0.00932807
0.985 0.005 0 0 0 -0.00650183
0.99 0.005 0 0 0 -0.00379664
0.995 0.005 0 0 0 -0.00155836
1 0.005 0 0 0 -0.000198919
0 0.01 0 0 -0.000198919 0
0.005 0.01 0 0 0 -326.273
0.01 0.01 -0.18 0.0775352 -0.000921581 -44.439
0.015 0.01 -0.184674 -0.0351233 -0.000775352 9.49042
0.02 0.01 -0.15604 -0.0352465 -0.000570349 19.0898
0.025 0.01 -0.12714 -0.0246087 -0.000422888 18.9784
0.03 0.01 -0.103806 -0.016595 -0.000324261 16.8336
0.035 0.01 -0.0857822 -0.0115231 -0.000256938 14.5344
0.04 0.01 -0.0718427 -0.00834262 -0.000209031 12.5102
0.045 0.01 -0.0609056 -0.00627608 -0.000173512 10.8124
0.05 0.01 -0.0521802 -0.00486904 -0.00014627 9.40225
0.055 0.01 -0.0451131 -0.00386709 -0.000124821 8.22858
0.06 0.01 -0.0393168 -0.0031258 -0.000107599 7.24631
0.065 0.01 -0.0345143 -0.00256015 -9.35632e-05 6.41942
0.07 0.01 -0.0305034 -0.00211792 -8.1997e-05 5.71972
0.075 0.01 -0.0271324 -0.00176553 -7.23839e-05 5.12509
0.08 0.01 -0.0242854 -0.00148048 -6.43415e-05 4.61802
0.085 0.01 -0.0218716 -0.00124713 -5.75789e-05 4.18449
0.09 0.01 -0.0198193 -0.00105424 -5.187e-05 3.81311
0.095 0.01 -0.0180704 -0.000893485 -4.70364e-05 3.49456
0.1 0.01 -0.0165782 -0.000758596 -4.2935e-05 3.22114
0.105 0.01 -0.015304 -0.000644725 -3.94502e-05 2.98644
0.11 0.01 -0.0142158 -0.000548075 -3.64876e-05 2.7851
0.115 0.01 -0.0132873 -0.000465634 -3.39693e-05 2.61259
0.12 0.01 -0.0124963 -0.000394986 -3.18311e-05 2.46509
0.125 0.01 -0.0118241 -0.000334174 -3.00193e-05 2.33937
0.13 0.01 -0.0112551 -0.000281604 -2.84892e-05 2.23266
0.135 0.01 -0.010776 -0.000235967 -2.72031e-05 2.14262
0.14 0.01 -0.0103754 -0.000196183 -2.61294e-05 2.06723
0.145 0.01 -0.0100438 -0.000161358 -2.52411e-05 2.00475
0.15 0.01 -0.00977307 -0.000130748 -2.45157e-05 1.95371
0.155 0.01 -0.00955606 -0.000103732 -2.39335e-05 1.91281
0.16 0.01 -0.00938678 -7.97876e-05 -2.34782e-05 1.88096
0.165 0.01 -0.00926001 -5.84788e-05 -2.31355e-05 1.85718
0.17 0.01 -0.00917128 -3.94369e-05 -2.28933e-05 1.84064
0.175 0.01 -0.00911668 -2.23513e-05 -2.27411e-05 1.83062
0.18 0.01 -0.00909284 -6.95943e-06 -2.26697e-05 1.82648
0.185 0.01 -0.00909682 6.96095e-06 -2.26714e-05 1.82766
0.19 0.01 -0.00912602 1.9598e-05 -2.27392e-05 1.83368
0.195 0.01 -0.00917819 3.11112e-05 -2.28673e-05 1.84409
0.2 0.01 -0.00925134 4.16357e-05 -2.30502e-05 1.85853
0.205 0.01 -0.00934367 5.12861e-05 -2.32835e-05 1.87663
0.21 0.01 -0.00945363 6.01592e-05 -2.3563e-05 1.89811
0.215 0.01 -0.0095798 6.8337e-05 -2.38851e-05 1.92268
0.22 0.01 -0.0097209 7.58886e-05 -2.42464e-05 1.9501
0.225 0.01 -0.00987577 8.28725e-05 -2.46439e-05 1.98014
0.23 0.01 -0.0100434 8.93373e-05 -2.5075e-05 2.01259
0.235 0.01 -0.0102227 9.5324e-05 -2.55372e-05 2.04726
0.24 0.01 -0.0104129 0.000100867 -2.60282e-05 2.08396
0.245 0.01 -0.0106131 0.000105993 -2.65459e-05 2.12255
0.25 0.01 -0.0108225 0.000110727 -2.70882e-05 2.16284
0.255 0.01 -0.0110403 0.000115086 -2.76531e-05 2.2047
0.26 0.01 -0.0112658 0.000119086 -2.8239e-05 2.24798
0.265 0.01 -0.0114984 0.000122739 -2.8844e-05 2.29255
0.27 0.01 -0.0117374 0.000126054 -2.94664e-05 2.33826
0.275 0.01 -0.011982 0.000129038 -3.01046e-05 2.38499
0.28 0.01 -0.0122316 0.000131696 -3.07568e-05 2.43261
0.285 0.01 -0.0124857 0.000134032 -3.14216e-05 2.48099
0.29 0.01 -0.0127435 0.000136048 -3.20972e-05 2.53
0.295 0.01 -0.0130045 0.000137745 -3.27821e-05 2.57954
0.3 0.01 -0.013268 0.000139124 -3.34747e-05 2.62946
0.305 0.01 -0.0135334 0.000140184 -3.41734e-05 2.67966
0.31 0.01 -0.0138 0.000140924 -3.48766e-05 2.73001
0.315 0.01 -0.0140674 0.000141344 -3.55828e-05 2.78039
0.32 0.01 -0.0143347 0.000141443 -3.62902e-05 2.83068
0.325 0.01 -0.0146015 0.000141218 -3.69973e-05 2.88075
0.33 0.01 -0.0148671 0.00014067 -3.77025e-05 2.93051
0.335 0.01 -0.0151309 0.000139797 -3.84041e-05 2.97981
0.34 0.01 -0.0153921 0.000138598 -3.91006e-05 3.02855
0.345 0.01 -0.0156504 0.000137073 -3.97903e-05 3.0766
0.35 0.01 -0.0159049 0.000135223 -4.04715e-05 3.12385
0.355 0.01 -0.0161552 0.000133048 -4.11427e-05 3.17019
0.36 0.01 -0.0164005 0.000130549 -4.18022e-05 3.2155
0.365 0.01 -0.0166403 0.000127729 -4.24484e-05 3.25967
0.37 0.01 -0.016874 0.000124589 -4.30797e-05 3.30258
0.375 0.01 -0.017101 0.000121133 -4.36945e-05 3.34412
0.38 0.01 -0.0173207 0.000117365 -4.42912e-05 3.3842
0.385 0.01 -0.0175325 0.000113291 -4.48684e-05 3.4227
0.39 0.01 -0.0177359 0.000108915 -4.54244e-05 3.45952
0.395 0.01 -0.0179303 0.000104245 -4.59578e-05 3.49456
0.4 0.01 -0.0181153 9.92869e-05 -4.64671e-05 3.52773
0.405 0.01 -0.0182902 9.40504e-05 -4.6951e-05 3.55893
0.41 0.01 -0.0184546 8.85441e-05 -4.74079e-05 3.58807
0.415 0.01 -0.018608 8.27782e-05 -4.78367e-05 3.61508
0.42 0.01 -0.0187499 7.67636e-05 -4.8236e-05 3.63986
0.425 0.01 -0.01888 7.05119e-05 -4.86047e-05 3.66235
0.43 0.01 -0.0189977 6.40359e-05 -4.89415e-05 3.68246
0.435 0.01 -0.0191028 5.7349e-05 -4.92454e-05 3.70015
0.44 0.01 -0.0191949 5.04654e-05 -4.95153e-05 3.71533
0.445 0.01 -0.0192735 4.34001e-05 -4.97504e-05 3.72797
0.45 0.01 -0.0193386 3.61688e-05 -4.99497e-05 3.738
0.455 0.01 -0.0193897 2.87878e-05 -5.01125e-05 3.74539
0.46 0.01 -0.0194266 2.12743e-05 -5.0238e-05 3.75009
0.465 0.01 -0.0194491 1.36457e-05 -5.03256e-05 3.75208
0.47 0.01 -0.0194571 5.92023e-06 -5.03748e-05 3.75132
0.475 0.01 -0.0194504 -1.88356e-06 -5.03852e-05 3.7478
0.48 0.01 -0.019429 -9.74667e-06 -5.03564e-05 3.74151
0.485 0.01 -0.0193927 -1.76498e-05 -5.02882e-05 3.73244
0.49 0.01 -0.0193415 -2.55733e-05 -5.01804e-05 3.72059
0.495 0.01 -0.0192754 -3.34974e-05 -5.00329e-05 3.70597
0.5 0.01 -0.0191945 -4.14022e-05 -4.98458e-05 3.68858
0.505 0.01 -0.0190989 -4.92677e-05 -4.96193e-05 3.66846
0.51 0.01 -0.0189886 -5.7074e-05 -4.93536e-05 3.64562
0.515 0.01 -0.0188639 -6.48012e-05 -4.9049e-05 3.6201
0.52 0.01 -0.0187248 -7.24298e-05 -4.8706e-05 3.59194
0.525 0.01 -0.0185717 -7.99403e-05 -4.83252e-05 3.56118
0.53 0.01 -0.0184047 -8.73137e-05 -4.79071e-05 3.52788
0.535 0.01 -0.0182243 -9.45316e-05 -4.74525e-05 3.49209
0.54 0.01 -0.0180306 -0.000101576 -4.69622e-05 3.45388
0.545 0.01 -0.0178241 -0.000108429 -4.64372e-05 3.41332
0.55 0.01 -0.0176051 -0.000115074 -4.58784e-05 3.37047
0.555 0.01 -0.0173741 -0.000121494 -4.52869e-05 3.32542
0.56 0.01 -0.0171314 -0.000127676 -4.46639e-05 3.27826
0.565 0.01 -0.0168777 -0.000133603 -4.40106e-05 3.22907
0.57 0.01 -0.0166132 -0.000139264 -4.33283e-05 3.17794
0.575 0.01 -0.0163387 -0.000144644 -4.26184e-05 3.12497
0.58 0.01 -0.0160546 -0.000149734 -4.18823e-05 3.07027
0.585 0.01 -0.0157614 -0.000154521 -4.11215e-05 3.01393
0.59 0.01 -0.0154598 -0.000158998 -4.03375e-05 2.95606
0.595 0.01 -0.0151503 -0.000163156 -3.95319e-05 2.89678
0.6 0.01 -0.0148335 -0.000166988 -3.87064e-05 2.83618
0.605 0.01 -0.0145101 -0.000170488 -3.78625e-05 2.77439
0.61 0.01 -0.0141806 -0.000173652 -3.70019e-05 2.71151
0.615 0.01 -0.0138457 -0.000176477 -3.61263e-05 2.64767
0.62 0.01 -0.013506 -0.000178961 -3.52375e-05 2.58297
0.625 0.01 -0.0131622 -0.000181102 -3.43371e-05 2.51754
0.63 0.01 -0.0128149 -0.000182902 -3.34268e-05 2.45149
0.635 0.01 -0.0124646 -0.000184361 -3.25084e-05 2.38493
0.64 0.01 -0.0121121 -0.000185483 -3.15836e-05 2.31798
0.645 0.01 -0.0117579 -0.000186271 -3.06539e-05 2.25075
0.65 0.01 -0.0114027 -0.000186731 -2.97212e-05 2.18335
0.655 0.01 -0.0110471 -0.000186869 -2.87869e-05 2.1159
0.66 0.01 -0.0106916 -0.00018669 -2.78528e-05 2.04849
0.665 0.01 -0.0103368 -0.000186204 -2.69203e-05 1.98124
0.67 0.01 -0.00998331 -0.00018542 -2.5991e-05 1.91424
0.675 0.01 -0.00963164 -0.000184346 -2.50664e-05 1.8476
0.68 0.01 -0.0092823 -0.000182994 -2.41478e-05 1.7814
0.685 0.01 -0.00893581 -0.000181373 -2.32367e-05 1.71575
0.69 0.01 -0.00859265 -0.000179497 -2.23343e-05 1.65072
0.695 0.01 -0.00825328 -0.000177377 -2.14419e-05 1.58641
0.7 0.01 -0.00791813 -0.000175026 -2.05607e-05 1.5229
0.705 0.01 -0.00758763 -0.000172456 -1.96918e-05 1.46025
0.71 0.01 -0.00726217 -0.000169682 -1.88363e-05 1.39854
0.715 0.01 -0.0069421 -0.000166716 -1.79952e-05 1.33784
0.72 0.01 -0.00662777 -0.000163572 -1.71693e-05 1.27821
0.725 0.01 -0.00631951 -0.000160265 -1.63596e-05 1.21972
0.73 0.01 -0.00601759 -0.000156808 -1.55668e-05 1.1624
0.735 0.01 -0.00572229 -0.000153215 -1.47917e-05 1.10632
0.74 0.01 -0.00543385 -0.000149498 -1.40348e-05 1.05151
0.745 0.01 -0.00515248 -0.000145673 -1.32968e-05 0.998028
0.75 0.01 -0.00487838 -0.000141752 -1.25782e-05 0.945896
0.755 0.01 -0.00461172 -0.000137748 -1.18794e-05 0.89515
0.76 0.01 -0.00435264 -0.000133673 -1.12008e-05 0.845818
0.765 0.01 -0.00410126 -0.00012954 -1.05427e-05 0.797922
0.77 0.01 -0.00385769 -0.00012536 -9.90545e-06 0.751483
0.775 0.01 -0.00362201 -0.000121146 -9.28917e-06 0.706517
0.78 0.01 -0.00339426 -0.000116907 -8.69404e-06 0.663034
0.785 0.01 -0.0031745 -0.000112654 -8.12015e-06 0.621043
0.79 0.01 -0.00296275 -0.000108397 -7.56754e-06 0.58055
0.795 0.01 -0.00275901 -0.000104145 -7.03621e-06 0.541556
0.8 0.01 -0.00256326 -9.99071e-05 -6.52612e-06 0.50406
0.805 0.01 -0.00237547 -9.56908e-05 -6.03716e-06 0.468058
0.81 0.01 -0.00219561 -9.1504e-05 -5.56922e-06 0.433542
0.815 0.01 -0.00202362 -8.73534e-05 -5.12214e-06 0.400504
0.82 0.01 -0.00185943 -8.32456e-05 -4.6957e-06 0.368932
0.825 0.01 -0.00170295 -7.91862e-05 -4.28968e-06 0.338812
0.83 0.01 -0.0015541 -7.51806e-05 -3.90383e-06 0.310129
0.835 0.01 -0.00141278 -7.12333e-05 -3.53787e-06 0.282864
0.84 0.01 -0.00127887 -6.73485e-05 -3.1915e-06 0.257
0.845 0.01 -0.00115227 -6.35298e-05 -2.86438e-06 0.232514
0.85 0.01 -0.00103284 -5.97803e-05 -2.55619e-06 0.209386
0.855 0.01 -0.000920472 -5.61026e-05 -2.26656e-06 0.187592
0.86 0.01 -0.000815018 -5.24991e-05 -1.99515e-06 0.167108
0.865 0.01 -0.000716344 -4.89713e-05 -1.74156e-06 0.147911
0.87 0.01 -0.000624311 -4.55207e-05 -1.50542e-06 0.129973
0.875 0.01 -0.000538775 -4.21483e-05 -1.28633e-06 0.11327
0.88 0.01 -0.000459591 -3.88548e-05 -1.08391e-06 0.0977736
0.885 0.01 -0.000386612 -3.56406e-05 -8.97766e-07 0.0834579
0.89 0.01 -0.00031969 -3.25061e-05 -7.2749e-07 0.0702952
0.895 0.01 -0.000258675 -2.94512e-05 -5.72686e-07 0.0582576
0.9 0.01 -0.000203418 -2.64761e-05 -4.32958e-07 0.047317
0.905 0.01 -0.000153767 -2.35807e-05 -3.07907e-07 0.0374449
0.91 0.01 -0.000109571 -2.07653e-05 -1.97134e-07 0.0286124
0.915 0.01 -7.06762e-05 -1.80303e-05 -1.00237e-07 0.02079
0.92 0.01 -3.69258e-05 -1.53767e-05 -1.68146e-08 0.0139472
0.925 0.01 -8.16003e-06 -1.28062e-05 5.35449e-08 0.00805288
0.93 0.01 1.57864e-05 -1.03214e-05 1.11261e-07 0.00307416
0.935 0.01 3.50867e-05 -7.92652e-06 1.56772e-07 -0.00102358
0.94 0.01 4.99253e-05 -5.62763e-06 1.90538e-07 -0.00427761
0.945 0.01 6.05021e-05 -3.43362e-06 2.13058e-07 -0.0067287
0.95 0.01 6.70385e-05 -1.35717e-06 2.24883e-07 -0.00842225
0.955 0.01 6.97854e-05 5.83745e-07 2.26637e-07 -0.00940986
0.96 0.01 6.90341e-05 2.36376e-06 2.19052e-07 -0.00975131
0.965 0.01 6.51305e-05 3.94704e-06 2.03005e-07 -0.00951712
0.97 0.01 5.84946e-05 5.28274e-06 1.79585e-07 -0.0087918
0.975 0.01 4.96469e-05 6.29842e-06 1.5018e-07 -0.00767762
0.98 0.01 3.92419e-05 6.8907e-06 1.16602e-07 -0.00629861
0.985 0.01 2.81101e-05 6.91446e-06 8.12737e-08 -0.0048028
0.99 0.01 1.73011e-05 6.17942e-06 4.74582e-08 -0.00335732
0.995 0.01 8.10081e-06 4.49717e-06 1.94794e-08 -0.00212144
1 0.01 1.94362e-06 1.94794e-06 2.48637e-09 -0.00115882
0 0.015 0 0 -0.0015549 0
0.005 0.015 0 0 0 -256
0.01 0.015 -0.152747 0.184674 -0.0018 -79.3048
0.015 0.015 -0.20595 -0.02396 -0.00184674 -16.6542
0.02 0.015 -0.204156 -0.0575339 -0.0015604 2.35217
0.025 0.015 -0.184148 -0.0522339 -0.0012714 8.00414
0.03 0.015 -0.160834 -0.041358 -0.00103806 9.35382
0.035 0.015 -0.139195 -0.0319632 -0.000857822 9.24124
0.04 0.015 -0.120479 -0.0248765 -0.000718427 8.64091
0.045 0.015 -0.10467 -0.0196626 -0.000609056 7.90911
0.05 0.015 -0.0913966 -0.0157925 -0.000521802 7.17945
0.055 0.015 -0.0802427 -0.0128634 -0.000451131 6.50057
0.06 0.015 -0.0708385 -0.0105988 -0.000393167 5.88746
0.065 0.015 -0.0628783 -0.00881336 -0.000345143 5.3416
0.07 0.015 -0.0561154 -0.00738183 -0.000305033 4.85924
0.075 0.015 -0.050351 -0.00621794 -0.000271324 4.43479
0.08 0.015 -0.0454248 -0.00526075 -0.000242853 4.06229
0.085 0.015 -0.0412059 -0.00446608 -0.000218716 3.73598
0.09 0.015 -0.0375873 -0.00380113 -0.000198192 3.45062
0.095 0.015 -0.0344805 -0.003241 -0.000180704 3.20143
0.1 0.015 -0.0318118 -0.00276644 -0.000165781 2.98422
0.105 0.015 -0.0295197 -0.00236231 -0.000153039 2.79523
0.11 0.015 -0.0275524 -0.00201656 -0.000142158 2.63121
0.115 0.015 -0.0258663 -0.00171947 -0.000132873 2.48925
0.12 0.015 -0.0244245 -0.00146316 -0.000124962 2.36683
0.125 0.015 -0.0231954 -0.00124115 -0.000118241 2.26174
0.13 0.015 -0.0221524 -0.00104812 -0.00011255 2.17204
0.135 0.015 -0.0212726 -0.000879643 -0.000107759 2.09602
0.14 0.015 -0.0205363 -0.000732054 -0.000103753 2.0322
0.145 0.015 -0.0199267 -0.000602275 -0.000100438 1.97927
0.15 0.015 -0.0194293 -0.000487729 -9.77302e-05 1.93608
0.155 0.015 -0.0190316 -0.000386249 -9.55602e-05 1.90162
0.16 0.015 -0.0187228 -0.000296006 -9.38673e-05 1.87502
0.165 0.015 -0.0184935 -0.000215455 -9.25997e-05 1.85549
0.17 0.015 -0.0183355 -0.000143287 -9.17123e-05 1.84234
0.175 0.015 -0.0182417 -7.83911e-05 -9.11664e-05 1.83497
0.18 0.015 -0.0182059 -1.9824e-05 -9.09281e-05 1.83283
0.185 0.015 -0.0182227 3.32163e-05 -9.09678e-05 1.83545
0.19 0.015 -0.0182872 8.14124e-05 -9.12599e-05 1.84241
0.195 0.015 -0.0183952 0.000125345 -9.17816e-05 1.85331
0.2 0.015 -0.0185429 0.000165509 -9.25131e-05 1.86782
0.205 0.015 -0.018727 0.000202325 -9.34365e-05 1.88563
0.21 0.015 -0.0189446 0.00023615 -9.45361e-05 1.90647
0.215 0.015 -0.0191928 0.000267287 -9.57978e-05 1.93007
0.22 0.015 -0.0194692 0.000295994 -9.72088e-05 1.95621
0.225 0.015 -0.0197717 0.000322488 -9.87576e-05 1.98467
0.23 0.015 -0.0200981 0.000346952 -0.000100434 2.01526
0.235 0.015 -0.0204466 0.000369539 -0.000102227 2.04779
0.24 0.015 -0.0208153 0.000390378 -0.000104129 2.08209
0.245 0.015 -0.0212028 0.000409577 -0.000106131 2.118
0.25 0.015 -0.0216073 0.000427223 -0.000108225 2.15537
0.255 0.015 -0.0220274 0.000443388 -0.000110403 2.19405
0.26 0.015 -0.0224616 0.000458132 -0.000112659 2.2339
0.265 0.015 -0.0229087 0.000471502 -0.000114984 2.27479
0.27 0.015 -0.0233672 0.000483535 -0.000117374 2.31658
0.275 0.015 -0.0238359 0.000494261 -0.00011982 2.35914
0.28 0.015 -0.0243134 0.0005037 -0.000122316 2.40236
0.285 0.015 -0.0247986 0.00051187 -0.000124857 2.44611
0.29 0.015 -0.0252902 0.000518782 -0.000127435 2.49027
0.295 0.015 -0.0257869 0.000524445 -0.000130045 2.53473
0.3 0.015 -0.0262876 0.000528862 -0.00013268 2.57936
0.305 0.015 -0.026791 0.000532036 -0.000135334 2.62405
0.31 0.015 -0.0272959 0.000533969 -0.000138001 2.66869
0.315 0.015 -0.0278012 0.00053466 -0.000140674 2.71317
0.32 0.015 -0.0283056 0.000534108 -0.000143348 2.75737
0.325 0.015 -0.0288079 0.000532313 -0.000146016 2.80119
0.33 0.015 -0.0293069 0.000529275 -0.000148672 2.84451
0.335 0.015 -0.0298015 0.000524995 -0.000151309 2.88723
0.34 0.015 -0.0302905 0.000519473 -0.000153922 2.92924
0.345 0.015 -0.0307727 0.000512714 -0.000156504 2.97044
0.35 0.015 -0.0312468 0.000504722 -0.00015905 3.01073
0.355 0.015 -0.0317119 0.000495504 -0.000161552 3.04999
0.36 0.015 -0.0321666 0.000485069 -0.000164006 3.08814
0.365 0.015 -0.03261 0.000473429 -0.000166404 3.12508
0.37 0.015 -0.0330408 0.000460597 -0.000168741 3.16071
0.375 0.015 -0.0334579 0.00044659 -0.000171011 3.19494
0.38 0.015 -0.0338604 0.000431429 -0.000173208 3.22768
0.385 0.015 -0.0342471 0.000415134 -0.000175326 3.25884
0.39 0.015 -0.034617 0.000397732 -0.00017736 3.28834
0.395 0.015 -0.0349692 0.000379251 -0.000179304 3.3161
0.4 0.015 -0.0353025 0.000359723 -0.000181154 3.34205
0.405 0.015 -0.0356162 0.000339183 -0.000182903 3.36611
0.41 0.015 -0.0359093 0.000317668 -0.000184547 3.38821
0.415 0.015 -0.036181 0.000295218 -0.000186081 3.40828
0.42 0.015 -0.0364305 0.000271879 -0.0001875 3.42628
0.425 0.015 -0.0366569 0.000247696 -0.000188801 3.44213
0.43 0.015 -0.0368596 0.00022272 -0.000189978 3.4558
0.435 0.015 -0.037038 0.000197002 -0.000191029 3.46722
0.44 0.015 -0.0371913 0.000170599 -0.00019195 3.47637
0.445 0.015 -0.037319 0.000143568 -0.000192737 3.4832
0.45 0.015 -0.0374207 0.000115968 -0.000193387 3.48769
0.455 0.015 -0.0374959 8.78633e-05 -0.000193898 3.4898
0.46 0.015 -0.0375441 5.9317e-05 -0.000194267 3.48952
0.465 0.015 -0.0375651 3.03958e-05 -0.000194493 3.48682
0.47 0.015 -0.0375586 1.16737e-06 -0.000194573 3.48171
0.475 0.015 -0.0375244 -2.82988e-05 -0.000194506 3.47417
0.48 0.015 -0.0374624 -5.79322e-05 -0.000194291 3.4642
0.485 0.015 -0.0373725 -8.76613e-05 -0.000193928 3.45181
0.49 0.015 -0.0372547 -0.000117414 -0.000193416 3.43702
0.495 0.015 -0.0371091 -0.000147117 -0.000192756 3.41983
0.5 0.015 -0.0369358 -0.000176699 -0.000191947 3.40027
0.505 0.015 -0.0367349 -0.000206086 -0.000190991 3.37837
0.51 0.015 -0.0365068 -0.000235205 -0.000189888 3.35415
0.515 0.015 -0.0362518 -0.000263985 -0.00018864 3.32767
0.52 0.015 -0.0359703 -0.000292356 -0.00018725 3.29895
0.525 0.015 -0.0356627 -0.000320247 -0.000185719 3.26804
0.53 0.015 -0.0353295 -0.00034759 -0.000184049 3.235
0.535 0.015 -0.0349714 -0.000374319 -0.000182244 3.19989
0.54 0.015 -0.0345889 -0.000400369 -0.000180308 3.16276
0.545 0.015 -0.0341828 -0.000425678 -0.000178242 3.12367
0.55 0.015 -0.0337537 -0.000450186 -0.000176053 3.08271
0.555 0.015 -0.0333026 -0.000473837 -0.000173742 3.03993
0.56 0.015 -0.0328302 -0.000496576 -0.000171316 2.99541
0.565 0.015 -0.0323373 -0.000518354 -0.000168778 2.94923
0.57 0.015 -0.0318251 -0.000539122 -0.000166134 2.90148
0.575 0.015 -0.0312943 -0.000558836 -0.000163389 2.85224
0.58 0.015 -0.0307461 -0.000577458 -0.000160547 2.80159
0.585 0.015 -0.0301815 -0.000594952 -0.000157616 2.74962
0.59 0.015 -0.0296014 -0.000611284 -0.0001546 2.69643
0.595 0.015 -0.0290071 -0.000626428 -0.000151505 2.6421
0.6 0.015 -0.0283997 -0.00064036 -0.000148337 2.58674
0.605 0.015 -0.0277802 -0.000653062 -0.000145102 2.53042
0.61 0.015 -0.0271498 -0.000664517 -0.000141808 2.47326
0.615 0.015 -0.0265097 -0.000674717 -0.000138459 2.41535
0.62 0.015 -0.0258611 -0.000683654 -0.000135062 2.35677
0.625 0.015 -0.025205 -0.000691327 -0.000131624 2.29764
0.63 0.015 -0.0245427 -0.00069774 -0.00012815 2.23804
0.635 0.015 -0.0238753 -0.000702898 -0.000124648 2.17806
0.64 0.015 -0.023204 -0.000706812 -0.000121122 2.11781
0.645 0.015 -0.0225299 -0.000709499 -0.000117581 2.05738
0.65 0.015 -0.0218541 -0.000710975 -0.000114029 1.99685
0.655 0.015 -0.0211777 -0.000711264 -0.000110472 1.93632
0.66 0.015 -0.0205019 -0.000710393 -0.000106917 1.87587
0.665 0.015 -0.0198275 -0.000708389 -0.000103369 1.81559
0.67 0.015 -0.0191558 -0.000705286 -9.98342e-05 1.75557
0.675 0.015 -0.0184876 -0.000701119 -9.63173e-05 1.69588
0.68 0.015 -0.017824 -0.000695925 -9.28239e-05 1.63661
0.685 0.015 -0.0171657 -0.000689746 -8.9359e-05 1.57783
0.69 0.015 -0.0165139 -0.000682623 -8.59274e-05 1.5196
0.695 0.015 -0.0158692 -0.000674602 -8.25336e-05 1.46201
0.7 0.015 -0.0152325 -0.000665727 -7.91821e-05 1.40512
0.705 0.015 -0.0146045 -0.000656046 -7.58771e-05 1.34898
0.71 0.015 -0.013986 -0.000645608 -7.26224e-05 1.29367
0.715 0.015 -0.0133777 -0.000634462 -6.94216e-05 1.23923
0.72 0.015 -0.0127801 -0.000622657 -6.62783e-05 1.18573
0.725 0.015 -0.0121939 -0.000610245 -6.31956e-05 1.1332
0.73 0.015 -0.0116196 -0.000597274 -6.01764e-05 1.08169
0.735 0.015 -0.0110576 -0.000583795 -5.72234e-05 1.03125
0.74 0.015 -0.0105086 -0.000569858 -5.43389e-05 0.98192
0.745 0.015 -0.00997275 -0.000555512 -5.15252e-05 0.933724
0.75 0.015 -0.00945054 -0.000540804 -4.87842e-05 0.886699
0.755 0.015 -0.00894225 -0.000525782 -4.61176e-05 0.840872
0.76 0.015 -0.00844817 -0.000510493 -4.35267e-05 0.796268
0.765 0.015 -0.00796852 -0.00049498 -4.10129e-05 0.752909
0.77 0.015 -0.0075035 -0.000479286 -3.85772e-05 0.710812
0.775 0.015 -0.00705327 -0.000463455 -3.62203e-05 0.669993
0.78 0.015 -0.00661794 -0.000447524 -3.39428e-05 0.630463
0.785 0.015 -0.00619759 -0.000431533 -3.17452e-05 0.592231
0.79 0.015 -0.00579228 -0.000415517 -2.96277e-05 0.555304
0.795 0.015 -0.00540201 -0.000399511 -2.75902e-05 0.519684
0.8 0.015 -0.00502678 -0.000383546 -2.56327e-05 0.485374
0.805 0.015 -0.00466653 -0.000367654 -2.37548e-05 0.452371
0.81 0.015 -0.00432121 -0.000351861 -2.19562e-05 0.420672
0.815 0.015 -0.0039907 -0.000336194 -2.02363e-05 0.390271
0.82 0.015 -0.0036749 -0.000320676 -1.85943e-05 0.36116
0.825 0.015 -0.00337366 -0.00030533 -1.70295e-05 0.333329