Title=" Lid Driven Flow"
VARIABLES="X","Y","U","V","psi","xi"
ZONE T= "BOX", I= 201, J=201, F=POINT
0 0 0 0 0.00209558 0
0.005 0 0 0 0 0
0.01 0 0 0 0 0
0.015 0 0 0 0 161.891
0.02 0 0 0 0 176.126
0.025 0 0 0 0 155.615
0.03 0 0 0 0 133.236
0.035 0 0 0 0 115.729
0.04 0 0 0 0 102.887
0.045 0 0 0 0 93.3624
0.05 0 0 0 0 86.045
0.055 0 0 0 0 80.2009
0.06 0 0 0 0 75.3716
0.065 0 0 0 0 71.2683
0.07 0 0 0 0 67.7038
0.075 0 0 0 0 64.552
0.08 0 0 0 0 61.7252
0.085 0 0 0 0 59.1604
0.09 0 0 0 0 56.8116
0.095 0 0 0 0 54.6441
0.1 0 0 0 0 52.6315
0.105 0 0 0 0 50.7532
0.11 0 0 0 0 48.9929
0.115 0 0 0 0 47.3377
0.12 0 0 0 0 45.777
0.125 0 0 0 0 44.3019
0.13 0 0 0 0 42.905
0.135 0 0 0 0 41.58
0.14 0 0 0 0 40.3215
0.145 0 0 0 0 39.1245
0.15 0 0 0 0 37.9848
0.155 0 0 0 0 36.8985
0.16 0 0 0 0 35.8622
0.165 0 0 0 0 34.8725
0.17 0 0 0 0 33.9266
0.175 0 0 0 0 33.0216
0.18 0 0 0 0 32.1549
0.185 0 0 0 0 31.3243
0.19 0 0 0 0 30.5273
0.195 0 0 0 0 29.7618
0.2 0 0 0 0 29.0259
0.205 0 0 0 0 28.3175
0.21 0 0 0 0 27.6349
0.215 0 0 0 0 26.9764
0.22 0 0 0 0 26.3404
0.225 0 0 0 0 25.7253
0.23 0 0 0 0 25.1297
0.235 0 0 0 0 24.5521
0.24 0 0 0 0 23.9914
0.245 0 0 0 0 23.4463
0.25 0 0 0 0 22.9156
0.255 0 0 0 0 22.3983
0.26 0 0 0 0 21.8934
0.265 0 0 0 0 21.3998
0.27 0 0 0 0 20.9168
0.275 0 0 0 0 20.4434
0.28 0 0 0 0 19.9789
0.285 0 0 0 0 19.5227
0.29 0 0 0 0 19.0739
0.295 0 0 0 0 18.632
0.3 0 0 0 0 18.1965
0.305 0 0 0 0 17.7668
0.31 0 0 0 0 17.3424
0.315 0 0 0 0 16.923
0.32 0 0 0 0 16.5081
0.325 0 0 0 0 16.0974
0.33 0 0 0 0 15.6906
0.335 0 0 0 0 15.2874
0.34 0 0 0 0 14.8877
0.345 0 0 0 0 14.4912
0.35 0 0 0 0 14.0979
0.355 0 0 0 0 13.7075
0.36 0 0 0 0 13.32
0.365 0 0 0 0 12.9353
0.37 0 0 0 0 12.5535
0.375 0 0 0 0 12.1745
0.38 0 0 0 0 11.7984
0.385 0 0 0 0 11.4252
0.39 0 0 0 0 11.055
0.395 0 0 0 0 10.688
0.4 0 0 0 0 10.3242
0.405 0 0 0 0 9.96381
0.41 0 0 0 0 9.60698
0.415 0 0 0 0 9.25387
0.42 0 0 0 0 8.9047
0.425 0 0 0 0 8.55966
0.43 0 0 0 0 8.21896
0.435 0 0 0 0 7.88283
0.44 0 0 0 0 7.55149
0.445 0 0 0 0 7.22517
0.45 0 0 0 0 6.90411
0.455 0 0 0 0 6.58854
0.46 0 0 0 0 6.27868
0.465 0 0 0 0 5.97477
0.47 0 0 0 0 5.67702
0.475 0 0 0 0 5.38565
0.48 0 0 0 0 5.10086
0.485 0 0 0 0 4.82284
0.49 0 0 0 0 4.55179
0.495 0 0 0 0 4.28785
0.5 0 0 0 0 4.03119
0.505 0 0 0 0 3.78194
0.51 0 0 0 0 3.54022
0.515 0 0 0 0 3.30613
0.52 0 0 0 0 3.07976
0.525 0 0 0 0 2.86117
0.53 0 0 0 0 2.6504
0.535 0 0 0 0 2.44747
0.54 0 0 0 0 2.25241
0.545 0 0 0 0 2.06518
0.55 0 0 0 0 1.88576
0.555 0 0 0 0 1.71409
0.56 0 0 0 0 1.55012
0.565 0 0 0 0 1.39374
0.57 0 0 0 0 1.24486
0.575 0 0 0 0 1.10336
0.58 0 0 0 0 0.969101
0.585 0 0 0 0 0.841942
0.59 0 0 0 0 0.721722
0.595 0 0 0 0 0.60827
0.6 0 0 0 0 0.501407
0.605 0 0 0 0 0.400942
0.61 0 0 0 0 0.306681
0.615 0 0 0 0 0.21842
0.62 0 0 0 0 0.13595
0.625 0 0 0 0 0.0590601
0.63 0 0 0 0 -0.0124649
0.635 0 0 0 0 -0.0788421
0.64 0 0 0 0 -0.14029
0.645 0 0 0 0 -0.197026
0.65 0 0 0 0 -0.249269
0.655 0 0 0 0 -0.297234
0.66 0 0 0 0 -0.341138
0.665 0 0 0 0 -0.381191
0.67 0 0 0 0 -0.417604
0.675 0 0 0 0 -0.450582
0.68 0 0 0 0 -0.480328
0.685 0 0 0 0 -0.50704
0.69 0 0 0 0 -0.530911
0.695 0 0 0 0 -0.55213
0.7 0 0 0 0 -0.570881
0.705 0 0 0 0 -0.58734
0.71 0 0 0 0 -0.601679
0.715 0 0 0 0 -0.614061
0.72 0 0 0 0 -0.624644
0.725 0 0 0 0 -0.633575
0.73 0 0 0 0 -0.640995
0.735 0 0 0 0 -0.647034
0.74 0 0 0 0 -0.651814
0.745 0 0 0 0 -0.655445
0.75 0 0 0 0 -0.658027
0.755 0 0 0 0 -0.659649
0.76 0 0 0 0 -0.660389
0.765 0 0 0 0 -0.660314
0.77 0 0 0 0 -0.659478
0.775 0 0 0 0 -0.657926
0.78 0 0 0 0 -0.65569
0.785 0 0 0 0 -0.652792
0.79 0 0 0 0 -0.649245
0.795 0 0 0 0 -0.645052
0.8 0 0 0 0 -0.640206
0.805 0 0 0 0 -0.634695
0.81 0 0 0 0 -0.6285
0.815 0 0 0 0 -0.621593
0.82 0 0 0 0 -0.613947
0.825 0 0 0 0 -0.605529
0.83 0 0 0 0 -0.596304
0.835 0 0 0 0 -0.586237
0.84 0 0 0 0 -0.575293
0.845 0 0 0 0 -0.563442
0.85 0 0 0 0 -0.550654
0.855 0 0 0 0 -0.536906
0.86 0 0 0 0 -0.522178
0.865 0 0 0 0 -0.50646
0.87 0 0 0 0 -0.489748
0.875 0 0 0 0 -0.472049
0.88 0 0 0 0 -0.453378
0.885 0 0 0 0 -0.433762
0.89 0 0 0 0 -0.41324
0.895 0 0 0 0 -0.391863
0.9 0 0 0 0 -0.369695
0.905 0 0 0 0 -0.346815
0.91 0 0 0 0 -0.323314
0.915 0 0 0 0 -0.299302
0.92 0 0 0 0 -0.274899
0.925 0 0 0 0 -0.250244
0.93 0 0 0 0 -0.225492
0.935 0 0 0 0 -0.200814
0.94 0 0 0 0 -0.176398
0.945 0 0 0 0 -0.152449
0.95 0 0 0 0 -0.129192
0.955 0 0 0 0 -0.10687
0.96 0 0 0 0 -0.0857457
0.965 0 0 0 0 -0.0661031
0.97 0 0 0 0 -0.0482461
0.975 0 0 0 0 -0.0324977
0.98 0 0 0 0 -0.0191953
0.985 0 0 0 0 -0.00867759
0.99 0 0 0 0 -0.00125377
0.995 0 0 0 0 0.00286891
1 0 0 0 0 0.00375162
0 0.005 0 0 0 0
0.005 0.005 0 0 0 0
0.01 0.005 0 0 0 73.7269
0.015 0.005 0 0 0 62.0356
0.02 0.005 0 0 0 45.6446
0.025 0.005 0 0 0 33.853
0.03 0.005 0 0 0 25.9613
0.035 0.005 0 0 0 20.5674
0.04 0.005 0 0 0 16.7219
0.045 0.005 0 0 0 13.8649
0.05 0.005 0 0 0 11.6689
0.055 0.005 0 0 0 9.93664
0.06 0.005 0 0 0 8.54354
0.065 0.005 0 0 0 7.40705
0.07 0.005 0 0 0 6.46999
0.075 0.005 0 0 0 5.69116
0.08 0.005 0 0 0 5.03992
0.085 0.005 0 0 0 4.49288
0.09 0.005 0 0 0 4.03179
0.095 0.005 0 0 0 3.64217
0.1 0.005 0 0 0 3.31241
0.105 0.005 0 0 0 3.03306
0.11 0.005 0 0 0 2.79639
0.115 0.005 0 0 0 2.59603
0.12 0.005 0 0 0 2.42668
0.125 0.005 0 0 0 2.28396
0.13 0.005 0 0 0 2.16418
0.135 0.005 0 0 0 2.06423
0.14 0.005 0 0 0 1.98152
0.145 0.005 0 0 0 1.91385
0.15 0.005 0 0 0 1.85935
0.155 0.005 0 0 0 1.81644
0.16 0.005 0 0 0 1.78376
0.165 0.005 0 0 0 1.76018
0.17 0.005 0 0 0 1.74469
0.175 0.005 0 0 0 1.73645
0.18 0.005 0 0 0 1.73474
0.185 0.005 0 0 0 1.73893
0.19 0.005 0 0 0 1.74847
0.195 0.005 0 0 0 1.76289
0.2 0.005 0 0 0 1.78177
0.205 0.005 0 0 0 1.80475
0.21 0.005 0 0 0 1.83151
0.215 0.005 0 0 0 1.86176
0.22 0.005 0 0 0 1.89525
0.225 0.005 0 0 0 1.93176
0.23 0.005 0 0 0 1.97107
0.235 0.005 0 0 0 2.01298
0.24 0.005 0 0 0 2.05734
0.245 0.005 0 0 0 2.10396
0.25 0.005 0 0 0 2.1527
0.255 0.005 0 0 0 2.2034
0.26 0.005 0 0 0 2.25593
0.265 0.005 0 0 0 2.31015
0.27 0.005 0 0 0 2.36592
0.275 0.005 0 0 0 2.42312
0.28 0.005 0 0 0 2.48161
0.285 0.005 0 0 0 2.54126
0.29 0.005 0 0 0 2.60195
0.295 0.005 0 0 0 2.66355
0.3 0.005 0 0 0 2.72592
0.305 0.005 0 0 0 2.78895
0.31 0.005 0 0 0 2.85249
0.315 0.005 0 0 0 2.91641
0.32 0.005 0 0 0 2.98059
0.325 0.005 0 0 0 3.04489
0.33 0.005 0 0 0 3.10916
0.335 0.005 0 0 0 3.17328
0.34 0.005 0 0 0 3.2371
0.345 0.005 0 0 0 3.30048
0.35 0.005 0 0 0 3.36329
0.355 0.005 0 0 0 3.42539
0.36 0.005 0 0 0 3.48662
0.365 0.005 0 0 0 3.54686
0.37 0.005 0 0 0 3.60596
0.375 0.005 0 0 0 3.66377
0.38 0.005 0 0 0 3.72016
0.385 0.005 0 0 0 3.77499
0.39 0.005 0 0 0 3.82813
0.395 0.005 0 0 0 3.87943
0.4 0.005 0 0 0 3.92876
0.405 0.005 0 0 0 3.976
0.41 0.005 0 0 0 4.02102
0.415 0.005 0 0 0 4.06368
0.42 0.005 0 0 0 4.10388
0.425 0.005 0 0 0 4.1415
0.43 0.005 0 0 0 4.17642
0.435 0.005 0 0 0 4.20854
0.44 0.005 0 0 0 4.23776
0.445 0.005 0 0 0 4.26398
0.45 0.005 0 0 0 4.28712
0.455 0.005 0 0 0 4.30709
0.46 0.005 0 0 0 4.32382
0.465 0.005 0 0 0 4.33724
0.47 0.005 0 0 0 4.34729
0.475 0.005 0 0 0 4.35392
0.48 0.005 0 0 0 4.35708
0.485 0.005 0 0 0 4.35673
0.49 0.005 0 0 0 4.35285
0.495 0.005 0 0 0 4.34542
0.5 0.005 0 0 0 4.33442
0.505 0.005 0 0 0 4.31986
0.51 0.005 0 0 0 4.30174
0.515 0.005 0 0 0 4.28007
0.52 0.005 0 0 0 4.25489
0.525 0.005 0 0 0 4.22623
0.53 0.005 0 0 0 4.19413
0.535 0.005 0 0 0 4.15863
0.54 0.005 0 0 0 4.11981
0.545 0.005 0 0 0 4.07773
0.55 0.005 0 0 0 4.03247
0.555 0.005 0 0 0 3.98411
0.56 0.005 0 0 0 3.93275
0.565 0.005 0 0 0 3.87849
0.57 0.005 0 0 0 3.82143
0.575 0.005 0 0 0 3.76169
0.58 0.005 0 0 0 3.6994
0.585 0.005 0 0 0 3.63467
0.59 0.005 0 0 0 3.56764
0.595 0.005 0 0 0 3.49845
0.6 0.005 0 0 0 3.42724
0.605 0.005 0 0 0 3.35416
0.61 0.005 0 0 0 3.27935
0.615 0.005 0 0 0 3.20297
0.62 0.005 0 0 0 3.12518
0.625 0.005 0 0 0 3.04612
0.63 0.005 0 0 0 2.96596
0.635 0.005 0 0 0 2.88486
0.64 0.005 0 0 0 2.80296
0.645 0.005 0 0 0 2.72044
0.65 0.005 0 0 0 2.63745
0.655 0.005 0 0 0 2.55414
0.66 0.005 0 0 0 2.47067
0.665 0.005 0 0 0 2.38718
0.67 0.005 0 0 0 2.30383
0.675 0.005 0 0 0 2.22076
0.68 0.005 0 0 0 2.1381
0.685 0.005 0 0 0 2.05599
0.69 0.005 0 0 0 1.97456
0.695 0.005 0 0 0 1.89395
0.7 0.005 0 0 0 1.81426
0.705 0.005 0 0 0 1.73561
0.71 0.005 0 0 0 1.65811
0.715 0.005 0 0 0 1.58186
0.72 0.005 0 0 0 1.50696
0.725 0.005 0 0 0 1.43349
0.73 0.005 0 0 0 1.36154
0.735 0.005 0 0 0 1.29119
0.74 0.005 0 0 0 1.2225
0.745 0.005 0 0 0 1.15553
0.75 0.005 0 0 0 1.09035
0.755 0.005 0 0 0 1.02699
0.76 0.005 0 0 0 0.965515
0.765 0.005 0 0 0 0.905946
0.77 0.005 0 0 0 0.848319
0.775 0.005 0 0 0 0.792658
0.78 0.005 0 0 0 0.738981
0.785 0.005 0 0 0 0.687301
0.79 0.005 0 0 0 0.637627
0.795 0.005 0 0 0 0.589961
0.8 0.005 0 0 0 0.544301
0.805 0.005 0 0 0 0.500641
0.81 0.005 0 0 0 0.458969
0.815 0.005 0 0 0 0.419271
0.82 0.005 0 0 0 0.381528
0.825 0.005 0 0 0 0.345718
0.83 0.005 0 0 0 0.311816
0.835 0.005 0 0 0 0.279794
0.84 0.005 0 0 0 0.249622
0.845 0.005 0 0 0 0.221266
0.85 0.005 0 0 0 0.194692
0.855 0.005 0 0 0 0.169863
0.86 0.005 0 0 0 0.146741
0.865 0.005 0 0 0 0.125286
0.87 0.005 0 0 0 0.105458
0.875 0.005 0 0 0 0.0872162
0.88 0.005 0 0 0 0.0705177
0.885 0.005 0 0 0 0.0553201
0.89 0.005 0 0 0 0.0415806
0.895 0.005 0 0 0 0.0292557
0.9 0.005 0 0 0 0.018302
0.905 0.005 0 0 0 0.00867563
0.91 0.005 0 0 0 0.000332558
0.915 0.005 0 0 0 -0.00677166
0.92 0.005 0 0 0 -0.012682
0.925 0.005 0 0 0 -0.0174444
0.93 0.005 0 0 0 -0.021106
0.935 0.005 0 0 0 -0.023716
0.94 0.005 0 0 0 -0.025326
0.945 0.005 0 0 0 -0.0259918
0.95 0.005 0 0 0 -0.0257745
0.955 0.005 0 0 0 -0.0247424
0.96 0.005 0 0 0 -0.0229746
0.965 0.005 0 0 0 -0.020564
0.97 0.005 0 0 0 -0.0176234
0.975 0.005 0 0 0 -0.0142928
0.98 0.005 0 0 0 -0.01075
0.985 0.005 0 0 0 -0.00722531
0.99 0.005 0 0 0 -0.00401773
0.995 0.005 0 0 0 -0.00150488
1 0.005 0 0 0 -0.000101395
0 0.01 0 0 -0.000101395 0
0.005 0.01 0 0 0 -326.273
0.01 0.01 -0.180008 0.0775445 -0.000921586 -44.4329
0.015 0.01 -0.184706 -0.0351028 -0.000775445 9.49698
0.02 0.01 -0.156098 -0.0352282 -0.000570558 19.0941
0.025 0.01 -0.127208 -0.0246042 -0.000423163 18.9801
0.03 0.01 -0.10386 -0.0166071 -0.000324517 16.8315
0.035 0.01 -0.0857996 -0.0115492 -0.000257092 14.5267
0.04 0.01 -0.0718065 -0.00837811 -0.000209024 12.4948
0.045 0.01 -0.0608053 -0.00631632 -0.000173311 10.7878
0.05 0.01 -0.0520114 -0.0049103 -0.000145861 9.36755
0.055 0.01 -0.0448764 -0.00390669 -0.000124208 8.1835
0.06 0.01 -0.039016 -0.00316198 -0.000106794 7.19117
0.065 0.01 -0.0341557 -0.00259194 -9.25881e-05 6.35493
0.07 0.01 -0.0300943 -0.00214486 -8.08747e-05 5.64685
0.075 0.01 -0.0266808 -0.00178758 -7.11393e-05 5.04498
0.08 0.01 -0.0237992 -0.00149784 -6.29989e-05 4.53189
0.085 0.01 -0.0213585 -0.00126015 -5.61608e-05 4.09351
0.09 0.01 -0.0192862 -0.00106337 -5.03972e-05 3.71844
0.095 0.01 -0.0175238 -0.000899206 -4.5527e-05 3.39727
0.1 0.01 -0.0160235 -0.000761377 -4.1405e-05 3.1222
0.105 0.01 -0.014746 -0.000645012 -3.79131e-05 2.8867
0.11 0.01 -0.0136589 -0.000546277 -3.49547e-05 2.68532
0.115 0.01 -0.0127348 -0.000462116 -3.24502e-05 2.51343
0.12 0.01 -0.0119512 -0.000390065 -3.03334e-05 2.36711
0.125 0.01 -0.0112888 -0.000328122 -2.85494e-05 2.24305
0.13 0.01 -0.0107316 -0.00027465 -2.70521e-05 2.1384
0.135 0.01 -0.0102659 -0.000228301 -2.58028e-05 2.05076
0.14 0.01 -0.00988011 -0.00018796 -2.47689e-05 1.97805
0.145 0.01 -0.00956437 -0.000152702 -2.3923e-05 1.91849
0.15 0.01 -0.00931028 -0.000121754 -2.32418e-05 1.87056
0.155 0.01 -0.00911064 -9.44731e-05 -2.27054e-05 1.83294
0.16 0.01 -0.00895931 -7.03182e-05 -2.22969e-05 1.80451
0.165 0.01 -0.00885099 -4.88356e-05 -2.20021e-05 1.78428
0.17 0.01 -0.00878113 -2.96434e-05 -2.18085e-05 1.7714
0.175 0.01 -0.00874579 -1.24195e-05 -2.17056e-05 1.76513
0.18 0.01 -0.00874157 3.1075e-06 -2.16842e-05 1.76484
0.185 0.01 -0.00876551 1.71671e-05 -2.17365e-05 1.76996
0.19 0.01 -0.00881505 2.99531e-05 -2.18558e-05 1.78
0.195 0.01 -0.00888793 4.16291e-05 -2.2036e-05 1.79452
0.2 0.01 -0.00898218 5.23333e-05 -2.2272e-05 1.81316
0.205 0.01 -0.00909604 6.21824e-05 -2.25593e-05 1.83557
0.21 0.01 -0.00922798 7.12746e-05 -2.28938e-05 1.86144
0.215 0.01 -0.00937661 7.96925e-05 -2.32719e-05 1.89051
0.22 0.01 -0.00954069 8.75052e-05 -2.36906e-05 1.92253
0.225 0.01 -0.00971909 9.47707e-05 -2.41469e-05 1.95728
0.23 0.01 -0.00991079 0.000101537 -2.46383e-05 1.99456
0.235 0.01 -0.0101149 0.000107844 -2.51623e-05 2.03418
0.24 0.01 -0.0103304 0.000113724 -2.57167e-05 2.07596
0.245 0.01 -0.0105566 0.000119204 -2.62995e-05 2.11974
0.25 0.01 -0.0107927 0.000124305 -2.69087e-05 2.16537
0.255 0.01 -0.011038 0.000129045 -2.75425e-05 2.2127
0.26 0.01 -0.0112917 0.000133436 -2.81991e-05 2.26158
0.265 0.01 -0.0115531 0.000137488 -2.88769e-05 2.31188
0.27 0.01 -0.0118217 0.00014121 -2.9574e-05 2.36347
0.275 0.01 -0.0120967 0.000144605 -3.0289e-05 2.41621
0.28 0.01 -0.0123775 0.000147677 -3.10201e-05 2.46997
0.285 0.01 -0.0126635 0.000150427 -3.17658e-05 2.52464
0.29 0.01 -0.0129539 0.000152856 -3.25244e-05 2.58007
0.295 0.01 -0.0132483 0.000154963 -3.32944e-05 2.63615
0.3 0.01 -0.0135459 0.000156745 -3.40741e-05 2.69275
0.305 0.01 -0.0138461 0.000158201 -3.48619e-05 2.74975
0.31 0.01 -0.0141483 0.000159328 -3.56562e-05 2.80701
0.315 0.01 -0.0144518 0.000160123 -3.64553e-05 2.86442
0.32 0.01 -0.0147559 0.000160581 -3.72575e-05 2.92184
0.325 0.01 -0.0150601 0.000160701 -3.80612e-05 2.97915
0.33 0.01 -0.0153637 0.000160479 -3.88646e-05 3.03622
0.335 0.01 -0.0156659 0.000159912 -3.96661e-05 3.09293
0.34 0.01 -0.0159662 0.000158997 -4.04639e-05 3.14915
0.345 0.01 -0.0162638 0.000157733 -4.12562e-05 3.20475
0.35 0.01 -0.0165582 0.000156116 -4.20413e-05 3.2596
0.355 0.01 -0.0168485 0.000154147 -4.28175e-05 3.31359
0.36 0.01 -0.0171343 0.000151824 -4.3583e-05 3.36657
0.365 0.01 -0.0174147 0.000149147 -4.43359e-05 3.41843
0.37 0.01 -0.0176891 0.000146118 -4.50746e-05 3.46905
0.375 0.01 -0.017957 0.000142739 -4.57973e-05 3.5183
0.38 0.01 -0.0182175 0.00013901 -4.65022e-05 3.56606
0.385 0.01 -0.0184701 0.000134937 -4.71876e-05 3.61221
0.39 0.01 -0.0187142 0.000130522 -4.78518e-05 3.65664
0.395 0.01 -0.0189491 0.000125773 -4.84931e-05 3.69923
0.4 0.01 -0.0191742 0.000120693 -4.91098e-05 3.73987
0.405 0.01 -0.019389 0.000115292 -4.97003e-05 3.77846
0.41 0.01 -0.0195927 0.000109576 -5.0263e-05 3.81489
0.415 0.01 -0.019785 0.000103556 -5.07963e-05 3.84906
0.42 0.01 -0.0199651 9.7241e-05 -5.12988e-05 3.88087
0.425 0.01 -0.0201327 9.06424e-05 -5.1769e-05 3.91024
0.43 0.01 -0.0202873 8.37723e-05 -5.22056e-05 3.93707
0.435 0.01 -0.0204282 7.66439e-05 -5.26071e-05 3.96129
0.44 0.01 -0.0205552 6.92713e-05 -5.29723e-05 3.98281
0.445 0.01 -0.0206678 6.16694e-05 -5.33001e-05 4.00158
0.45 0.01 -0.0207656 5.38541e-05 -5.35894e-05 4.01751
0.455 0.01 -0.0208482 4.58422e-05 -5.3839e-05 4.03056
0.46 0.01 -0.0209154 3.76512e-05 -5.40482e-05 4.04067
0.465 0.01 -0.0209668 2.92994e-05 -5.42159e-05 4.04779
0.47 0.01 -0.0210023 2.08059e-05 -5.43416e-05 4.05189
0.475 0.01 -0.0210215 1.21903e-05 -5.44244e-05 4.05293
0.48 0.01 -0.0210243 3.47299e-06 -5.44639e-05 4.05088
0.485 0.01 -0.0210106 -5.32523e-06 -5.44595e-05 4.04574
0.49 0.01 -0.0209803 -1.4183e-05 -5.4411e-05 4.03747
0.495 0.01 -0.0209333 -2.30787e-05 -5.43181e-05 4.02609
0.5 0.01 -0.0208695 -3.19903e-05 -5.41807e-05 4.01159
0.505 0.01 -0.0207891 -4.08954e-05 -5.39986e-05 3.99399
0.51 0.01 -0.0206921 -4.97718e-05 -5.37721e-05 3.9733
0.515 0.01 -0.0205785 -5.85967e-05 -5.35013e-05 3.94955
0.52 0.01 -0.0204486 -6.73478e-05 -5.31866e-05 3.92277
0.525 0.01 -0.0203024 -7.60028e-05 -5.28283e-05 3.893
0.53 0.01 -0.0201403 -8.45392e-05 -5.2427e-05 3.86029
0.535 0.01 -0.0199625 -9.29354e-05 -5.19834e-05 3.82469
0.54 0.01 -0.0197693 -0.00010117 -5.14981e-05 3.78626
0.545 0.01 -0.019561 -0.000109221 -5.09721e-05 3.74507
0.55 0.01 -0.0193381 -0.000117069 -5.04063e-05 3.70119
0.555 0.01 -0.0191008 -0.000124693 -4.98019e-05 3.6547
0.56 0.01 -0.0188498 -0.000132075 -4.91599e-05 3.6057
0.565 0.01 -0.0185854 -0.000139196 -4.84816e-05 3.55426
0.57 0.01 -0.0183082 -0.000146039 -4.77683e-05 3.50049
0.575 0.01 -0.0180187 -0.000152587 -4.70216e-05 3.4445
0.58 0.01 -0.0177175 -0.000158825 -4.62429e-05 3.38638
0.585 0.01 -0.0174052 -0.000164739 -4.54338e-05 3.32624
0.59 0.01 -0.0170824 -0.000170315 -4.45959e-05 3.26422
0.595 0.01 -0.0167497 -0.000175541 -4.37311e-05 3.20042
0.6 0.01 -0.0164079 -0.000180407 -4.28409e-05 3.13496
0.605 0.01 -0.0160575 -0.000184904 -4.19274e-05 3.06798
0.61 0.01 -0.0156994 -0.000189023 -4.09923e-05 2.99959
0.615 0.01 -0.0153341 -0.000192759 -4.00376e-05 2.92993
0.62 0.01 -0.0149624 -0.000196106 -3.90651e-05 2.85914
0.625 0.01 -0.0145851 -0.00019906 -3.80769e-05 2.78733
0.63 0.01 -0.0142028 -0.000201619 -3.70749e-05 2.71465
0.635 0.01 -0.0138162 -0.000203782 -3.60611e-05 2.64123
0.64 0.01 -0.0134262 -0.00020555 -3.50374e-05 2.5672
0.645 0.01 -0.0130335 -0.000206925 -3.40059e-05 2.49269
0.65 0.01 -0.0126387 -0.00020791 -3.29685e-05 2.41783
0.655 0.01 -0.0122425 -0.00020851 -3.19271e-05 2.34276
0.66 0.01 -0.0118457 -0.000208731 -3.08837e-05 2.2676
0.665 0.01 -0.011449 -0.00020858 -2.98401e-05 2.19248
0.67 0.01 -0.0110531 -0.000208066 -2.87982e-05 2.11752
0.675 0.01 -0.0106585 -0.000207197 -2.77597e-05 2.04284
0.68 0.01 -0.010266 -0.000205985 -2.67265e-05 1.96855
0.685 0.01 -0.00987608 -0.000204442 -2.57001e-05 1.89477
0.69 0.01 -0.00948946 -0.000202578 -2.46823e-05 1.82161
0.695 0.01 -0.00910667 -0.000200409 -2.36746e-05 1.74918
0.7 0.01 -0.00872827 -0.000197947 -2.26784e-05 1.67756
0.705 0.01 -0.00835477 -0.000195208 -2.16953e-05 1.60687
0.71 0.01 -0.00798668 -0.000192206 -2.07265e-05 1.53718
0.715 0.01 -0.00762447 -0.000188958 -1.97734e-05 1.46859
0.72 0.01 -0.00726857 -0.000185479 -1.88371e-05 1.40118
0.725 0.01 -0.00691939 -0.000181786 -1.79188e-05 1.33502
0.73 0.01 -0.00657733 -0.000177895 -1.70194e-05 1.27018
0.735 0.01 -0.00624273 -0.000173822 -1.614e-05 1.20673
0.74 0.01 -0.00591591 -0.000169585 -1.52813e-05 1.14472
0.745 0.01 -0.00559716 -0.0001652 -1.44443e-05 1.08422
0.75 0.01 -0.00528675 -0.000160683 -1.36294e-05 1.02527
0.755 0.01 -0.00498491 -0.000156051 -1.28375e-05 0.967903
0.76 0.01 -0.00469184 -0.000151319 -1.2069e-05 0.912173
0.765 0.01 -0.00440771 -0.000146503 -1.13244e-05 0.858106
0.77 0.01 -0.00413268 -0.000141619 -1.06041e-05 0.805731
0.775 0.01 -0.00386685 -0.000136681 -9.90829e-06 0.755071
0.78 0.01 -0.00361032 -0.000131702 -9.23731e-06 0.706145
0.785 0.01 -0.00336316 -0.000126698 -8.59131e-06 0.658965
0.79 0.01 -0.00312541 -0.00012168 -7.97038e-06 0.613541
0.795 0.01 -0.00289709 -0.000116661 -7.37454e-06 0.569878
0.8 0.01 -0.0026782 -0.000111654 -6.80379e-06 0.527977
0.805 0.01 -0.0024687 -0.000106668 -6.25803e-06 0.487834
0.81 0.01 -0.00226856 -0.000101714 -5.73713e-06 0.449444
0.815 0.01 -0.00207772 -9.68029e-05 -5.2409e-06 0.412795
0.82 0.01 -0.00189609 -9.19421e-05 -4.76911e-06 0.377874
0.825 0.01 -0.00172357 -8.71403e-05 -4.32148e-06 0.344665
0.83 0.01 -0.00156006 -8.24049e-05 -3.8977e-06 0.31315
0.835 0.01 -0.00140544 -7.77428e-05 -3.49742e-06 0.283305
0.84 0.01 -0.00125955 -7.31599e-05 -3.12027e-06 0.255108
0.845 0.01 -0.00112227 -6.86617e-05 -2.76581e-06 0.228532
0.85 0.01 -0.00099342 -6.4253e-05 -2.43363e-06 0.20355
0.855 0.01 -0.000872847 -5.99377e-05 -2.12327e-06 0.180131
0.86 0.01 -0.000760375 -5.57195e-05 -1.83424e-06 0.158244
0.865 0.01 -0.000655822 -5.16012e-05 -1.56605e-06 0.137857
0.87 0.01 -0.000559003 -4.75853e-05 -1.31821e-06 0.118937
0.875 0.01 -0.000469727 -4.36737e-05 -1.09018e-06 0.101448
0.88 0.01 -0.000387802 -3.98679e-05 -8.81449e-07 0.0853548
0.885 0.01 -0.000313028 -3.61691e-05 -6.91479e-07 0.0706212
0.89 0.01 -0.000245205 -3.25783e-05 -5.19735e-07 0.0572102
0.895 0.01 -0.000184132 -2.9096e-05 -3.65674e-07 0.045084
0.9 0.01 -0.000129604 -2.57229e-05 -2.28753e-07 0.0342043
0.905 0.01 -8.14124e-05 -2.24596e-05 -1.08424e-07 0.0245321
0.91 0.01 -3.93494e-05 -1.93069e-05 -4.13609e-09 0.0160277
0.915 0.01 -3.20212e-06 -1.62661e-05 8.46657e-08 0.00865048
0.92 0.01 2.72459e-05 -1.3339e-05 1.58544e-07 0.00235864
0.925 0.01 5.22167e-05 -1.05281e-05 2.18073e-07 -0.00289097
0.93 0.01 7.19403e-05 -7.83765e-06 2.63842e-07 -0.00714341
0.935 0.01 8.66572e-05 -5.27329e-06 2.96465e-07 -0.0104462
0.94 0.01 9.66224e-05 -2.84329e-06 3.16589e-07 -0.0128502
0.945 0.01 0.000102111 -5.59203e-07 3.2491e-07 -0.0144104
0.95 0.01 0.000103425 1.56291e-06 3.22191e-07 -0.0151876
0.955 0.01 0.000100901 3.50084e-06 3.0929e-07 -0.0152495
0.96 0.01 9.49249e-05 5.22391e-06 2.8719e-07 -0.0146736
0.965 0.01 8.59466e-05 6.68975e-06 2.57056e-07 -0.0135494
0.97 0.01 7.45e-05 7.83967e-06 2.20297e-07 -0.0119814
0.975 0.01 6.12308e-05 8.59217e-06 1.78663e-07 -0.0100934
0.98 0.01 4.69299e-05 8.83464e-06 1.34377e-07 -0.00803094
0.985 0.01 3.2571e-05 8.41557e-06 9.03173e-08 -0.00596169
0.99 0.01 1.93416e-05 7.15063e-06 5.02219e-08 -0.00406635
0.995 0.01 8.63157e-06 4.89544e-06 1.8811e-08 -0.00250249
1 0.01 1.8767e-06 1.8811e-06 1.26731e-09 -0.00130036
0 0.015 0 0 -0.00150136 0
0.005 0.015 0 0 0 -255.994
0.01 0.015 -0.152765 0.184706 -0.00180008 -79.2968
0.015 0.015 -0.205999 -0.0239099 -0.00184706 -16.6521
0.02 0.015 -0.204228 -0.0574979 -0.00156098 2.34493
0.025 0.015 -0.184217 -0.0522378 -0.00127208 7.98998
0.03 0.015 -0.160867 -0.0414083 -0.0010386 9.33529
0.035 0.015 -0.139162 -0.0320534 -0.000857996 9.21932
0.04 0.015 -0.120355 -0.0249943 -0.000718065 8.6154
0.045 0.015 -0.104439 -0.0197951 -0.000608053 7.87933
0.05 0.015 -0.0910534 -0.0159289 -0.000520114 7.14469
0.055 0.015 -0.0797873 -0.0129954 -0.000448764 6.4603
0.06 0.015 -0.0702766 -0.0107207 -0.00039016 5.84144
0.065 0.015 -0.0622194 -0.00892169 -0.000341556 5.28989
0.07 0.015 -0.0553709 -0.00747478 -0.000300942 4.80213
0.075 0.015 -0.0495337 -0.006295 -0.000266808 4.37276
0.08 0.015 -0.0445475 -0.00532227 -0.000237992 3.99593
0.085 0.015 -0.0402813 -0.004513 -0.000213585 3.66598
0.09 0.015 -0.0366271 -0.00383471 -0.000192862 3.37768
0.095 0.015 -0.0334955 -0.00326268 -0.000175237 3.12627
0.1 0.015 -0.0308118 -0.00277768 -0.000160234 2.90752
0.105 0.015 -0.0285132 -0.00236456 -0.00014746 2.71766
0.11 0.015 -0.0265469 -0.00201115 -0.000136588 2.55336
0.115 0.015 -0.0248683 -0.00170762 -0.000127348 2.41167
0.12 0.015 -0.0234393 -0.00144595 -0.000119511 2.29002
0.125 0.015 -0.0222278 -0.00121952 -0.000112888 2.18613
0.13 0.015 -0.0212063 -0.00102287 -0.000107316 2.09803
0.135 0.015 -0.0203511 -0.000851461 -0.000102659 2.02395
0.14 0.015 -0.0196422 -0.000701492 -9.88007e-05 1.96237
0.145 0.015 -0.0190622 -0.000569789 -9.56432e-05 1.91194
0.15 0.015 -0.0185963 -0.000453682 -9.31023e-05 1.87148
0.155 0.015 -0.0182317 -0.000350921 -9.1106e-05 1.83997
0.16 0.015 -0.0179573 -0.00025961 -8.95927e-05 1.81649
0.165 0.015 -0.0177636 -0.000178145 -8.85095e-05 1.80024
0.17 0.015 -0.0176422 -0.000105166 -8.78109e-05 1.79052
0.175 0.015 -0.017586 -3.95222e-05 -8.74575e-05 1.78672
0.18 0.015 -0.0175887 1.97634e-05 -8.74153e-05 1.78827
0.185 0.015 -0.0176448 7.352e-05 -8.76548e-05 1.79471
0.19 0.015 -0.0177495 0.000122452 -8.81502e-05 1.80559
0.195 0.015 -0.0178986 0.000167155 -8.88791e-05 1.82053
0.2 0.015 -0.0180882 0.000208138 -8.98215e-05 1.83919
0.205 0.015 -0.0183152 0.000245828 -9.09602e-05 1.86126
0.21 0.015 -0.0185766 0.000280589 -9.22796e-05 1.88646
0.215 0.015 -0.0188697 0.000312728 -9.37659e-05 1.91454
0.22 0.015 -0.019192 0.000342501 -9.54067e-05 1.94527
0.225 0.015 -0.0195415 0.000370125 -9.71907e-05 1.97843
0.23 0.015 -0.0199161 0.000395782 -9.91078e-05 2.01383
0.235 0.015 -0.020314 0.000419621 -0.000101148 2.05129
0.24 0.015 -0.0207334 0.000441766 -0.000103304 2.09064
0.245 0.015 -0.0211727 0.000462319 -0.000105566 2.13171
0.25 0.015 -0.0216304 0.000481362 -0.000107927 2.17436
0.255 0.015 -0.0221051 0.000498961 -0.00011038 2.21843
0.26 0.015 -0.0225952 0.000515169 -0.000112917 2.26379
0.265 0.015 -0.0230996 0.000530025 -0.000115531 2.3103
0.27 0.015 -0.0236167 0.000543559 -0.000118217 2.35783
0.275 0.015 -0.0241454 0.000555794 -0.000120967 2.40624
0.28 0.015 -0.0246844 0.000566743 -0.000123775 2.45542
0.285 0.015 -0.0252323 0.000576416 -0.000126635 2.50523
0.29 0.015 -0.025788 0.000584815 -0.000129539 2.55555
0.295 0.015 -0.0263501 0.000591942 -0.000132483 2.60626
0.3 0.015 -0.0269175 0.000597793 -0.000135459 2.65724
0.305 0.015 -0.0274888 0.000602363 -0.000138461 2.70837
0.31 0.015 -0.0280629 0.000605646 -0.000141483 2.75953
0.315 0.015 -0.0286384 0.000607633 -0.000144518 2.81059
0.32 0.015 -0.0292141 0.000608317 -0.00014756 2.86145
0.325 0.015 -0.0297887 0.000607689 -0.000150602 2.91198
0.33 0.015 -0.030361 0.000605741 -0.000153637 2.96206
0.335 0.015 -0.0309296 0.000602468 -0.00015666 3.01158
0.34 0.015 -0.0314934 0.000597864 -0.000159662 3.06043
0.345 0.015 -0.0320511 0.000591924 -0.000162639 3.10849
0.35 0.015 -0.0326013 0.000584647 -0.000165582 3.15564
0.355 0.015 -0.0331428 0.000576034 -0.000168486 3.20178
0.36 0.015 -0.0336744 0.000566086 -0.000171343 3.24679
0.365 0.015 -0.0341948 0.00055481 -0.000174147 3.29057
0.37 0.015 -0.0347027 0.000542213 -0.000176892 3.33302
0.375 0.015 -0.035197 0.000528306 -0.00017957 3.37401
0.38 0.015 -0.0356764 0.000513104 -0.000182176 3.41347
0.385 0.015 -0.0361397 0.000496624 -0.000184702 3.45128
0.39 0.015 -0.0365859 0.000478887 -0.000187143 3.48735
0.395 0.015 -0.0370136 0.000459917 -0.000189492 3.52159
0.4 0.015 -0.0374219 0.000439741 -0.000191743 3.55391
0.405 0.015 -0.0378097 0.000418392 -0.000193891 3.58422
0.41 0.015 -0.0381758 0.000395903 -0.000195928 3.61245
0.415 0.015 -0.0385193 0.000372313 -0.000197851 3.63852
0.42 0.015 -0.0388393 0.000347664 -0.000199653 3.66235
0.425 0.015 -0.0391347 0.000322001 -0.000201329 3.68387
0.43 0.015 -0.0394048 0.000295374 -0.000202874 3.70303
0.435 0.015 -0.0396488 0.000267833 -0.000204284 3.71976
0.44 0.015 -0.0398657 0.000239434 -0.000205554 3.734
0.445 0.015 -0.040055 0.000210236 -0.000206679 3.74572
0.45 0.015 -0.040216 0.0001803 -0.000207657 3.75487
0.455 0.015 -0.040348 0.000149691 -0.000208484 3.76141
0.46 0.015 -0.0404506 0.000118475 -0.000209156 3.7653
0.465 0.015 -0.0405232 8.67221e-05 -0.00020967 3.76653
0.47 0.015 -0.0405655 5.45043e-05 -0.000210024 3.76508
0.475 0.015 -0.0405772 2.18953e-05 -0.000210217 3.76092
0.48 0.015 -0.0405579 -1.10289e-05 -0.000210245 3.75405
0.485 0.015 -0.0405075 -4.41909e-05 -0.000210108 3.74446
0.49 0.015 -0.0404259 -7.75117e-05 -0.000209804 3.73217
0.495 0.015 -0.040313 -0.000110911 -0.000209334 3.71718
0.5 0.015 -0.0401688 -0.000144309 -0.000208697 3.69951
0.505 0.015 -0.0399935 -0.000177623 -0.000207893 3.67917
0.51 0.015 -0.0397872 -0.000210772 -0.000206922 3.65619
0.515 0.015 -0.0395501 -0.000243674 -0.000205787 3.63062
0.52 0.015 -0.0392826 -0.000276248 -0.000204487 3.60248
0.525 0.015 -0.0389851 -0.000308412 -0.000203026 3.57182
0.53 0.015 -0.0386581 -0.000340088 -0.000201405 3.53868
0.535 0.015 -0.038302 -0.000371196 -0.000199627 3.50314
0.54 0.015 -0.0379176 -0.000401659 -0.000197695 3.46524
0.545 0.015 -0.0375054 -0.000431403 -0.000195612 3.42505
0.55 0.015 -0.0370662 -0.000460354 -0.000193382 3.38263
0.555 0.015 -0.0366008 -0.000488442 -0.00019101 3.33808
0.56 0.015 -0.03611 -0.000515599 -0.0001885 3.29145
0.565 0.015 -0.0355949 -0.000541761 -0.000185856 3.24284
0.57 0.015 -0.0350563 -0.000566866 -0.000183084 3.19233
0.575 0.015 -0.0344953 -0.000590857 -0.000180189 3.14002
0.58 0.015 -0.033913 -0.000613681 -0.000177177 3.08599
0.585 0.015 -0.0333104 -0.000635286 -0.000174054 3.03034
0.59 0.015 -0.0326888 -0.000655628 -0.000170826 2.97317
0.595 0.015 -0.0320493 -0.000674665 -0.000167499 2.91459
0.6 0.015 -0.0313932 -0.000692362 -0.000164081 2.85469
0.605 0.015 -0.0307218 -0.000708687 -0.000160577 2.79358
0.61 0.015 -0.0300362 -0.000723612 -0.000156995 2.73137
0.615 0.015 -0.0293379 -0.000737116 -0.000153342 2.66817
0.62 0.015 -0.028628 -0.000749183 -0.000149626 2.60408
0.625 0.015 -0.0279081 -0.000759799 -0.000145852 2.53922
0.63 0.015 -0.0271793 -0.00076896 -0.000142029 2.47369
0.635 0.015 -0.0264431 -0.000776663 -0.000138164 2.40761
0.64 0.015 -0.0257008 -0.000782911 -0.000134264 2.34108
0.645 0.015 -0.0249536 -0.000787713 -0.000130336 2.27421
0.65 0.015 -0.024203 -0.000791083 -0.000126388 2.20711
0.655 0.015 -0.0234502 -0.000793037 -0.000122426 2.13988
0.66 0.015 -0.0226966 -0.000793599 -0.000118459 2.07264
0.665 0.015 -0.0219433 -0.000792795 -0.000114491 2.00547
0.67 0.015 -0.0211916 -0.000790655 -0.000110532 1.93849
0.675 0.015 -0.0204427 -0.000787216 -0.000106586 1.87178
0.68 0.015 -0.0196979 -0.000782516 -0.000102661 1.80545
0.685 0.015 -0.0189581 -0.000776596 -9.87618e-05 1.73959
0.69 0.015 -0.0182246 -0.000769502 -9.48955e-05 1.67429
0.695 0.015 -0.0174983 -0.000761282 -9.10676e-05 1.60962
0.7 0.015 -0.0167804 -0.000751987 -8.72835e-05 1.54568
0.705 0.015 -0.0160716 -0.00074167 -8.35485e-05 1.48254
0.71 0.015 -0.0153731 -0.000730386 -7.98676e-05 1.42028
0.715 0.015 -0.0146855 -0.000718191 -7.62454e-05 1.35897
0.72 0.015 -0.0140098 -0.000705144 -7.26863e-05 1.29868
0.725 0.015 -0.0133467 -0.000691303 -6.91946e-05 1.23946
0.73 0.015 -0.0126969 -0.000676728 -6.57739e-05 1.18138
0.735 0.015 -0.0120611 -0.00066148 -6.24278e-05 1.1245
0.74 0.015 -0.0114397 -0.000645619 -5.91596e-05 1.06886
0.745 0.015 -0.0108335 -0.000629205 -5.59721e-05 1.01451
0.75 0.015 -0.0102429 -0.000612297 -5.28679e-05 0.961487
0.755 0.015 -0.00966823 -0.000594955 -4.98495e-05 0.909836
0.76 0.015 -0.00910998 -0.000577237 -4.69187e-05 0.859588
0.765 0.015 -0.00856846 -0.000559198 -4.40774e-05 0.810773
0.77 0.015 -0.00804394 -0.000540896 -4.1327e-05 0.763416
0.775 0.015 -0.00753664 -0.000522383 -3.86687e-05 0.717538
0.78 0.015 -0.00704676 -0.000503711 -3.61034e-05 0.673158
0.785 0.015 -0.00657442 -0.00048493 -3.36318e-05 0.630288
0.79 0.015 -0.00611971 -0.000466089 -3.12543e-05 0.58894
0.795 0.015 -0.00568268 -0.000447233 -2.89711e-05 0.549119
0.8 0.015 -0.00526334 -0.000428404 -2.67821e-05 0.51083
0.805 0.015 -0.00486165 -0.000409645 -2.46871e-05 0.474073
0.81 0.015 -0.00447754 -0.000390993 -2.26857e-05 0.438844
0.815 0.015 -0.0041109 -0.000372484 -2.07772e-05 0.405138
0.82 0.015 -0.00376161 -0.000354152 -1.89609e-05 0.372946
0.825 0.015 -0.00342949 -0.000336028 -1.72357e-05 0.342258