Title=" Lid Driven Flow"
VARIABLES="X","Y","U","V","psi","xi"
ZONE T= "BOX", I= 201, J=201, F=POINT
0 0 0 0 -8.92846e-07 0
0.005 0 0 0 0 0
0.01 0 0 0 0 0
0.015 0 0 0 0 161.886
0.02 0 0 0 0 176.133
0.025 0 0 0 0 155.661
0.03 0 0 0 0 133.34
0.035 0 0 0 0 115.898
0.04 0 0 0 0 103.117
0.045 0 0 0 0 93.643
0.05 0 0 0 0 86.3583
0.055 0 0 0 0 80.5261
0.06 0 0 0 0 75.6865
0.065 0 0 0 0 71.5506
0.07 0 0 0 0 67.9324
0.075 0 0 0 0 64.7075
0.08 0 0 0 0 61.7903
0.085 0 0 0 0 59.1205
0.09 0 0 0 0 56.6541
0.095 0 0 0 0 54.359
0.1 0 0 0 0 52.2108
0.105 0 0 0 0 50.1909
0.11 0 0 0 0 48.2849
0.115 0 0 0 0 46.4811
0.12 0 0 0 0 44.7703
0.125 0 0 0 0 43.1446
0.13 0 0 0 0 41.5974
0.135 0 0 0 0 40.1229
0.14 0 0 0 0 38.7162
0.145 0 0 0 0 37.3725
0.15 0 0 0 0 36.0878
0.155 0 0 0 0 34.8581
0.16 0 0 0 0 33.6799
0.165 0 0 0 0 32.5499
0.17 0 0 0 0 31.4648
0.175 0 0 0 0 30.4216
0.18 0 0 0 0 29.4174
0.185 0 0 0 0 28.4496
0.19 0 0 0 0 27.5155
0.195 0 0 0 0 26.6128
0.2 0 0 0 0 25.7391
0.205 0 0 0 0 24.8924
0.21 0 0 0 0 24.0705
0.215 0 0 0 0 23.2715
0.22 0 0 0 0 22.4939
0.225 0 0 0 0 21.7358
0.23 0 0 0 0 20.9959
0.235 0 0 0 0 20.2727
0.24 0 0 0 0 19.5652
0.245 0 0 0 0 18.8721
0.25 0 0 0 0 18.1925
0.255 0 0 0 0 17.5257
0.26 0 0 0 0 16.8709
0.265 0 0 0 0 16.2275
0.27 0 0 0 0 15.595
0.275 0 0 0 0 14.9732
0.28 0 0 0 0 14.3617
0.285 0 0 0 0 13.7605
0.29 0 0 0 0 13.1694
0.295 0 0 0 0 12.5885
0.3 0 0 0 0 12.018
0.305 0 0 0 0 11.4579
0.31 0 0 0 0 10.9086
0.315 0 0 0 0 10.3704
0.32 0 0 0 0 9.8435
0.325 0 0 0 0 9.32842
0.33 0 0 0 0 8.82553
0.335 0 0 0 0 8.33523
0.34 0 0 0 0 7.85797
0.345 0 0 0 0 7.39415
0.35 0 0 0 0 6.94419
0.355 0 0 0 0 6.50848
0.36 0 0 0 0 6.08737
0.365 0 0 0 0 5.68119
0.37 0 0 0 0 5.29021
0.375 0 0 0 0 4.91467
0.38 0 0 0 0 4.55475
0.385 0 0 0 0 4.21058
0.39 0 0 0 0 3.88221
0.395 0 0 0 0 3.56966
0.4 0 0 0 0 3.27287
0.405 0 0 0 0 2.99173
0.41 0 0 0 0 2.72607
0.415 0 0 0 0 2.47566
0.42 0 0 0 0 2.24022
0.425 0 0 0 0 2.01943
0.43 0 0 0 0 1.81292
0.435 0 0 0 0 1.62026
0.44 0 0 0 0 1.44102
0.445 0 0 0 0 1.2747
0.45 0 0 0 0 1.12082
0.455 0 0 0 0 0.97883
0.46 0 0 0 0 0.848201
0.465 0 0 0 0 0.728375
0.47 0 0 0 0 0.618789
0.475 0 0 0 0 0.518875
0.48 0 0 0 0 0.428065
0.485 0 0 0 0 0.345792
0.49 0 0 0 0 0.271494
0.495 0 0 0 0 0.20462
0.5 0 0 0 0 0.144627
0.505 0 0 0 0 0.090987
0.51 0 0 0 0 0.0431893
0.515 0 0 0 0 0.000742758
0.52 0 0 0 0 -0.0368213
0.525 0 0 0 0 -0.0699469
0.53 0 0 0 0 -0.0990506
0.535 0 0 0 0 -0.124521
0.54 0 0 0 0 -0.146714
0.545 0 0 0 0 -0.165959
0.55 0 0 0 0 -0.182551
0.555 0 0 0 0 -0.196754
0.56 0 0 0 0 -0.208805
0.565 0 0 0 0 -0.21891
0.57 0 0 0 0 -0.227252
0.575 0 0 0 0 -0.233988
0.58 0 0 0 0 -0.239255
0.585 0 0 0 0 -0.243171
0.59 0 0 0 0 -0.24584
0.595 0 0 0 0 -0.247352
0.6 0 0 0 0 -0.247787
0.605 0 0 0 0 -0.247219
0.61 0 0 0 0 -0.245715
0.615 0 0 0 0 -0.243338
0.62 0 0 0 0 -0.240152
0.625 0 0 0 0 -0.236216
0.63 0 0 0 0 -0.23159
0.635 0 0 0 0 -0.226337
0.64 0 0 0 0 -0.220517
0.645 0 0 0 0 -0.214191
0.65 0 0 0 0 -0.207424
0.655 0 0 0 0 -0.200276
0.66 0 0 0 0 -0.192811
0.665 0 0 0 0 -0.18509
0.67 0 0 0 0 -0.177172
0.675 0 0 0 0 -0.169116
0.68 0 0 0 0 -0.160978
0.685 0 0 0 0 -0.152811
0.69 0 0 0 0 -0.144665
0.695 0 0 0 0 -0.136585
0.7 0 0 0 0 -0.128615
0.705 0 0 0 0 -0.120792
0.71 0 0 0 0 -0.113152
0.715 0 0 0 0 -0.105725
0.72 0 0 0 0 -0.0985364
0.725 0 0 0 0 -0.0916095
0.73 0 0 0 0 -0.084963
0.735 0 0 0 0 -0.0786119
0.74 0 0 0 0 -0.072568
0.745 0 0 0 0 -0.0668401
0.75 0 0 0 0 -0.0614341
0.755 0 0 0 0 -0.0563533
0.76 0 0 0 0 -0.0515988
0.765 0 0 0 0 -0.0471695
0.77 0 0 0 0 -0.0430628
0.775 0 0 0 0 -0.0392743
0.78 0 0 0 0 -0.0357983
0.785 0 0 0 0 -0.0326281
0.79 0 0 0 0 -0.0297557
0.795 0 0 0 0 -0.0271727
0.8 0 0 0 0 -0.0248697
0.805 0 0 0 0 -0.0228368
0.81 0 0 0 0 -0.0210634
0.815 0 0 0 0 -0.0195386
0.82 0 0 0 0 -0.0182512
0.825 0 0 0 0 -0.0171892
0.83 0 0 0 0 -0.0163405
0.835 0 0 0 0 -0.0156926
0.84 0 0 0 0 -0.0152323
0.845 0 0 0 0 -0.014946
0.85 0 0 0 0 -0.0148199
0.855 0 0 0 0 -0.0148391
0.86 0 0 0 0 -0.0149884
0.865 0 0 0 0 -0.0152519
0.87 0 0 0 0 -0.0156129
0.875 0 0 0 0 -0.0160538
0.88 0 0 0 0 -0.0165564
0.885 0 0 0 0 -0.0171013
0.89 0 0 0 0 -0.0176686
0.895 0 0 0 0 -0.0182374
0.9 0 0 0 0 -0.0187858
0.905 0 0 0 0 -0.0192913
0.91 0 0 0 0 -0.019731
0.915 0 0 0 0 -0.0200812
0.92 0 0 0 0 -0.0203184
0.925 0 0 0 0 -0.0204189
0.93 0 0 0 0 -0.0203599
0.935 0 0 0 0 -0.0201196
0.94 0 0 0 0 -0.0196781
0.945 0 0 0 0 -0.0190184
0.95 0 0 0 0 -0.0181272
0.955 0 0 0 0 -0.0169964
0.96 0 0 0 0 -0.0156253
0.965 0 0 0 0 -0.014022
0.97 0 0 0 0 -0.0122072
0.975 0 0 0 0 -0.0102171
0.98 0 0 0 0 -0.00810855
0.985 0 0 0 0 -0.0059652
0.99 0 0 0 0 -0.00390499
0.995 0 0 0 0 -0.00208778
1 0 0 0 0 -0.000715927
0 0.005 0 0 0 0
0.005 0.005 0 0 0 0
0.01 0.005 0 0 0 73.7206
0.015 0.005 0 0 0 61.956
0.02 0.005 0 0 0 45.4744
0.025 0.005 0 0 0 33.6398
0.03 0.005 0 0 0 25.7768
0.035 0.005 0 0 0 20.4761
0.04 0.005 0 0 0 16.7687
0.045 0.005 0 0 0 14.0741
0.05 0.005 0 0 0 12.0481
0.055 0.005 0 0 0 10.4812
0.06 0.005 0 0 0 9.24095
0.065 0.005 0 0 0 8.24026
0.07 0.005 0 0 0 7.41975
0.075 0.005 0 0 0 6.73769
0.08 0.005 0 0 0 6.16403
0.085 0.005 0 0 0 5.67656
0.09 0.005 0 0 0 5.25859
0.095 0.005 0 0 0 4.89737
0.1 0.005 0 0 0 4.58297
0.105 0.005 0 0 0 4.30759
0.11 0.005 0 0 0 4.06503
0.115 0.005 0 0 0 3.85028
0.12 0.005 0 0 0 3.65928
0.125 0.005 0 0 0 3.48869
0.13 0.005 0 0 0 3.33574
0.135 0.005 0 0 0 3.19814
0.14 0.005 0 0 0 3.07396
0.145 0.005 0 0 0 2.96155
0.15 0.005 0 0 0 2.85954
0.155 0.005 0 0 0 2.76672
0.16 0.005 0 0 0 2.68208
0.165 0.005 0 0 0 2.60472
0.17 0.005 0 0 0 2.53388
0.175 0.005 0 0 0 2.46888
0.18 0.005 0 0 0 2.40914
0.185 0.005 0 0 0 2.35413
0.19 0.005 0 0 0 2.3034
0.195 0.005 0 0 0 2.25653
0.2 0.005 0 0 0 2.21317
0.205 0.005 0 0 0 2.17298
0.21 0.005 0 0 0 2.13568
0.215 0.005 0 0 0 2.101
0.22 0.005 0 0 0 2.0687
0.225 0.005 0 0 0 2.03858
0.23 0.005 0 0 0 2.01044
0.235 0.005 0 0 0 1.98411
0.24 0.005 0 0 0 1.95941
0.245 0.005 0 0 0 1.93621
0.25 0.005 0 0 0 1.91438
0.255 0.005 0 0 0 1.89378
0.26 0.005 0 0 0 1.8743
0.265 0.005 0 0 0 1.85585
0.27 0.005 0 0 0 1.83832
0.275 0.005 0 0 0 1.82163
0.28 0.005 0 0 0 1.8057
0.285 0.005 0 0 0 1.79044
0.29 0.005 0 0 0 1.7758
0.295 0.005 0 0 0 1.7617
0.3 0.005 0 0 0 1.74809
0.305 0.005 0 0 0 1.7349
0.31 0.005 0 0 0 1.7221
0.315 0.005 0 0 0 1.70962
0.32 0.005 0 0 0 1.69743
0.325 0.005 0 0 0 1.68549
0.33 0.005 0 0 0 1.67374
0.335 0.005 0 0 0 1.66217
0.34 0.005 0 0 0 1.65074
0.345 0.005 0 0 0 1.63941
0.35 0.005 0 0 0 1.62816
0.355 0.005 0 0 0 1.61697
0.36 0.005 0 0 0 1.6058
0.365 0.005 0 0 0 1.59463
0.37 0.005 0 0 0 1.58346
0.375 0.005 0 0 0 1.57225
0.38 0.005 0 0 0 1.56099
0.385 0.005 0 0 0 1.54966
0.39 0.005 0 0 0 1.53825
0.395 0.005 0 0 0 1.52675
0.4 0.005 0 0 0 1.51515
0.405 0.005 0 0 0 1.50344
0.41 0.005 0 0 0 1.4916
0.415 0.005 0 0 0 1.47963
0.42 0.005 0 0 0 1.46752
0.425 0.005 0 0 0 1.45527
0.43 0.005 0 0 0 1.44287
0.435 0.005 0 0 0 1.43032
0.44 0.005 0 0 0 1.41762
0.445 0.005 0 0 0 1.40476
0.45 0.005 0 0 0 1.39174
0.455 0.005 0 0 0 1.37857
0.46 0.005 0 0 0 1.36523
0.465 0.005 0 0 0 1.35174
0.47 0.005 0 0 0 1.33809
0.475 0.005 0 0 0 1.32428
0.48 0.005 0 0 0 1.31032
0.485 0.005 0 0 0 1.29622
0.49 0.005 0 0 0 1.28196
0.495 0.005 0 0 0 1.26757
0.5 0.005 0 0 0 1.25303
0.505 0.005 0 0 0 1.23836
0.51 0.005 0 0 0 1.22357
0.515 0.005 0 0 0 1.20864
0.52 0.005 0 0 0 1.1936
0.525 0.005 0 0 0 1.17845
0.53 0.005 0 0 0 1.16319
0.535 0.005 0 0 0 1.14782
0.54 0.005 0 0 0 1.13236
0.545 0.005 0 0 0 1.11681
0.55 0.005 0 0 0 1.10118
0.555 0.005 0 0 0 1.08547
0.56 0.005 0 0 0 1.06969
0.565 0.005 0 0 0 1.05385
0.57 0.005 0 0 0 1.03795
0.575 0.005 0 0 0 1.02199
0.58 0.005 0 0 0 1.00599
0.585 0.005 0 0 0 0.989957
0.59 0.005 0 0 0 0.973886
0.595 0.005 0 0 0 0.957789
0.6 0.005 0 0 0 0.941672
0.605 0.005 0 0 0 0.925539
0.61 0.005 0 0 0 0.909398
0.615 0.005 0 0 0 0.893254
0.62 0.005 0 0 0 0.877111
0.625 0.005 0 0 0 0.860977
0.63 0.005 0 0 0 0.844855
0.635 0.005 0 0 0 0.828751
0.64 0.005 0 0 0 0.812669
0.645 0.005 0 0 0 0.796615
0.65 0.005 0 0 0 0.780593
0.655 0.005 0 0 0 0.764607
0.66 0.005 0 0 0 0.748662
0.665 0.005 0 0 0 0.732761
0.67 0.005 0 0 0 0.716908
0.675 0.005 0 0 0 0.701107
0.68 0.005 0 0 0 0.685361
0.685 0.005 0 0 0 0.669674
0.69 0.005 0 0 0 0.654049
0.695 0.005 0 0 0 0.638488
0.7 0.005 0 0 0 0.622996
0.705 0.005 0 0 0 0.607573
0.71 0.005 0 0 0 0.592224
0.715 0.005 0 0 0 0.57695
0.72 0.005 0 0 0 0.561755
0.725 0.005 0 0 0 0.546639
0.73 0.005 0 0 0 0.531607
0.735 0.005 0 0 0 0.516659
0.74 0.005 0 0 0 0.501799
0.745 0.005 0 0 0 0.487027
0.75 0.005 0 0 0 0.472348
0.755 0.005 0 0 0 0.457762
0.76 0.005 0 0 0 0.443272
0.765 0.005 0 0 0 0.428881
0.77 0.005 0 0 0 0.41459
0.775 0.005 0 0 0 0.400403
0.78 0.005 0 0 0 0.386322
0.785 0.005 0 0 0 0.37235
0.79 0.005 0 0 0 0.358491
0.795 0.005 0 0 0 0.344746
0.8 0.005 0 0 0 0.331121
0.805 0.005 0 0 0 0.317619
0.81 0.005 0 0 0 0.304244
0.815 0.005 0 0 0 0.291001
0.82 0.005 0 0 0 0.277894
0.825 0.005 0 0 0 0.264929
0.83 0.005 0 0 0 0.252112
0.835 0.005 0 0 0 0.239448
0.84 0.005 0 0 0 0.226946
0.845 0.005 0 0 0 0.214612
0.85 0.005 0 0 0 0.202454
0.855 0.005 0 0 0 0.190481
0.86 0.005 0 0 0 0.178703
0.865 0.005 0 0 0 0.167129
0.87 0.005 0 0 0 0.155771
0.875 0.005 0 0 0 0.14464
0.88 0.005 0 0 0 0.13375
0.885 0.005 0 0 0 0.123114
0.89 0.005 0 0 0 0.112747
0.895 0.005 0 0 0 0.102666
0.9 0.005 0 0 0 0.0928879
0.905 0.005 0 0 0 0.0834312
0.91 0.005 0 0 0 0.0743165
0.915 0.005 0 0 0 0.0655657
0.92 0.005 0 0 0 0.0572022
0.925 0.005 0 0 0 0.0492514
0.93 0.005 0 0 0 0.0417408
0.935 0.005 0 0 0 0.0346994
0.94 0.005 0 0 0 0.0281587
0.945 0.005 0 0 0 0.0221522
0.95 0.005 0 0 0 0.0167152
0.955 0.005 0 0 0 0.0118848
0.96 0.005 0 0 0 0.00769911
0.965 0.005 0 0 0 0.00419629
0.97 0.005 0 0 0 0.00141217
0.975 0.005 0 0 0 -0.000623401
0.98 0.005 0 0 0 -0.00189353
0.985 0.005 0 0 0 -0.00240731
0.99 0.005 0 0 0 -0.00222414
0.995 0.005 0 0 0 -0.00149898
1 0.005 0 0 0 -0.000559818
0 0.01 0 0 -0.000559818 0
0.005 0.01 0 0 0 -326.279
0.01 0.01 -0.179923 0.077445 -0.000921508 -44.4942
0.015 0.01 -0.184378 -0.0353078 -0.00077445 9.43677
0.02 0.01 -0.155529 -0.0353952 -0.00056843 19.0608
0.025 0.01 -0.126578 -0.0246219 -0.000420497 18.9772
0.03 0.01 -0.103416 -0.0164546 -0.00032221 16.8705
0.035 0.01 -0.0857662 -0.0112601 -0.000255951 14.6271
0.04 0.01 -0.0723466 -0.0080025 -0.000209609 12.6763
0.045 0.01 -0.062012 -0.00590085 -0.000175926 11.065
0.05 0.01 -0.0539172 -0.00449115 -0.000150601 9.7484
0.055 0.01 -0.0474677 -0.00350888 -0.000131015 8.66923
0.06 0.01 -0.0422472 -0.00280113 -0.000115512 7.77769
0.065 0.01 -0.0379612 -0.0022765 -0.000103003 7.03432
0.07 0.01 -0.034398 -0.0018782 -9.27467e-05 6.4087
0.075 0.01 -0.0314026 -0.00156964 -8.42211e-05 5.87754
0.08 0.01 -0.0288594 -0.00132641 -7.70503e-05 5.42285
0.085 0.01 -0.0266813 -0.00113179 -7.09569e-05 5.03071
0.09 0.01 -0.024801 -0.000973979 -6.57323e-05 4.69018
0.095 0.01 -0.0231664 -0.000844523 -6.1217e-05 4.39262
0.1 0.01 -0.0217364 -0.000737208 -5.7287e-05 4.13112
0.105 0.01 -0.0204782 -0.00064741 -5.38448e-05 3.90011
0.11 0.01 -0.0193655 -0.000571629 -5.08128e-05 3.69506
0.115 0.01 -0.0183767 -0.000507182 -4.81285e-05 3.51227
0.12 0.01 -0.0174944 -0.000451988 -4.57409e-05 3.34867
0.125 0.01 -0.0167039 -0.000404416 -4.36085e-05 3.20171
0.13 0.01 -0.0159933 -0.000363172 -4.16967e-05 3.06925
0.135 0.01 -0.0153523 -0.000327222 -3.99767e-05 2.9495
0.14 0.01 -0.0147724 -0.000295731 -3.84244e-05 2.84091
0.145 0.01 -0.0142464 -0.000268022 -3.70194e-05 2.7422
0.15 0.01 -0.0137679 -0.00024354 -3.57442e-05 2.65224
0.155 0.01 -0.0133317 -0.000221825 -3.4584e-05 2.57006
0.16 0.01 -0.0129332 -0.000202499 -3.35259e-05 2.49484
0.165 0.01 -0.0125683 -0.000185244 -3.2559e-05 2.42584
0.17 0.01 -0.0122335 -0.000169794 -3.16735e-05 2.36243
0.175 0.01 -0.0119258 -0.000155922 -3.08611e-05 2.30405
0.18 0.01 -0.0116424 -0.000143438 -3.01143e-05 2.2502
0.185 0.01 -0.0113811 -0.000132179 -2.94267e-05 2.20045
0.19 0.01 -0.0111397 -0.000122005 -2.87926e-05 2.15442
0.195 0.01 -0.0109163 -0.000112796 -2.82067e-05 2.11175
0.2 0.01 -0.0107093 -0.000104448 -2.76647e-05 2.07214
0.205 0.01 -0.0105171 -9.68704e-05 -2.71623e-05 2.03531
0.21 0.01 -0.0103384 -8.99849e-05 -2.6696e-05 2.00101
0.215 0.01 -0.0101721 -8.37226e-05 -2.62625e-05 1.96902
0.22 0.01 -0.0100169 -7.80232e-05 -2.58589e-05 1.93913
0.225 0.01 -0.0098719 -7.28335e-05 -2.54824e-05 1.91116
0.23 0.01 -0.00973622 -6.81067e-05 -2.51307e-05 1.88494
0.235 0.01 -0.00960903 -6.3801e-05 -2.48015e-05 1.86032
0.24 0.01 -0.00948956 -5.98794e-05 -2.44928e-05 1.83715
0.245 0.01 -0.00937715 -5.6309e-05 -2.42028e-05 1.81532
0.25 0.01 -0.00927116 -5.30602e-05 -2.39298e-05 1.7947
0.255 0.01 -0.00917102 -5.01064e-05 -2.36724e-05 1.77519
0.26 0.01 -0.00907619 -4.74238e-05 -2.34289e-05 1.75668
0.265 0.01 -0.00898619 -4.49909e-05 -2.31983e-05 1.73908
0.27 0.01 -0.00890058 -4.27882e-05 -2.29792e-05 1.72232
0.275 0.01 -0.00881893 -4.07981e-05 -2.27706e-05 1.70631
0.28 0.01 -0.00874086 -3.90043e-05 -2.25714e-05 1.69098
0.285 0.01 -0.00866602 -3.73923e-05 -2.23808e-05 1.67626
0.29 0.01 -0.00859409 -3.59486e-05 -2.21977e-05 1.6621
0.295 0.01 -0.00852475 -3.46609e-05 -2.20215e-05 1.64843
0.3 0.01 -0.00845772 -3.35179e-05 -2.18513e-05 1.63521
0.305 0.01 -0.00839274 -3.25091e-05 -2.16865e-05 1.62237
0.31 0.01 -0.00832958 -3.16249e-05 -2.15265e-05 1.60989
0.315 0.01 -0.00826799 -3.08563e-05 -2.13705e-05 1.5977
0.32 0.01 -0.00820777 -3.01952e-05 -2.12181e-05 1.58579
0.325 0.01 -0.00814873 -2.96336e-05 -2.10688e-05 1.5741
0.33 0.01 -0.00809069 -2.91646e-05 -2.09221e-05 1.56261
0.335 0.01 -0.00803348 -2.87812e-05 -2.07774e-05 1.55127
0.34 0.01 -0.00797693 -2.84773e-05 -2.06345e-05 1.54008
0.345 0.01 -0.00792092 -2.82468e-05 -2.04929e-05 1.52898
0.35 0.01 -0.0078653 -2.80844e-05 -2.03523e-05 1.51797
0.355 0.01 -0.00780996 -2.79847e-05 -2.02124e-05 1.50702
0.36 0.01 -0.00775477 -2.79428e-05 -2.00728e-05 1.4961
0.365 0.01 -0.00769963 -2.7954e-05 -1.99332e-05 1.4852
0.37 0.01 -0.00764446 -2.8014e-05 -1.97935e-05 1.4743
0.375 0.01 -0.00758915 -2.81185e-05 -1.96534e-05 1.46338
0.38 0.01 -0.00753364 -2.82637e-05 -1.95126e-05 1.45242
0.385 0.01 -0.00747784 -2.84459e-05 -1.9371e-05 1.44142
0.39 0.01 -0.00742169 -2.86613e-05 -1.92285e-05 1.43036
0.395 0.01 -0.00736513 -2.89068e-05 -1.90847e-05 1.41923
0.4 0.01 -0.00730811 -2.9179e-05 -1.89397e-05 1.40802
0.405 0.01 -0.00725058 -2.94749e-05 -1.87933e-05 1.39672
0.41 0.01 -0.00719249 -2.97918e-05 -1.86453e-05 1.38532
0.415 0.01 -0.00713382 -3.01267e-05 -1.84957e-05 1.37382
0.42 0.01 -0.00707452 -3.04771e-05 -1.83443e-05 1.3622
0.425 0.01 -0.00701458 -3.08406e-05 -1.81912e-05 1.35047
0.43 0.01 -0.00695397 -3.12148e-05 -1.80362e-05 1.33862
0.435 0.01 -0.00689266 -3.15974e-05 -1.78794e-05 1.32665
0.44 0.01 -0.00683066 -3.19865e-05 -1.77206e-05 1.31455
0.445 0.01 -0.00676794 -3.23799e-05 -1.75598e-05 1.30232
0.45 0.01 -0.0067045 -3.27758e-05 -1.73971e-05 1.28996
0.455 0.01 -0.00664034 -3.31725e-05 -1.72324e-05 1.27748
0.46 0.01 -0.00657545 -3.35683e-05 -1.70657e-05 1.26486
0.465 0.01 -0.00650985 -3.39617e-05 -1.6897e-05 1.25211
0.47 0.01 -0.00644353 -3.43511e-05 -1.67264e-05 1.23923
0.475 0.01 -0.0063765 -3.47352e-05 -1.65538e-05 1.22623
0.48 0.01 -0.00630878 -3.51128e-05 -1.63794e-05 1.2131
0.485 0.01 -0.00624037 -3.54826e-05 -1.6203e-05 1.19985
0.49 0.01 -0.0061713 -3.58437e-05 -1.60249e-05 1.18647
0.495 0.01 -0.00610158 -3.61949e-05 -1.58449e-05 1.17298
0.5 0.01 -0.00603123 -3.65354e-05 -1.56632e-05 1.15938
0.505 0.01 -0.00596027 -3.68643e-05 -1.54799e-05 1.14567
0.51 0.01 -0.00588872 -3.7181e-05 -1.52949e-05 1.13185
0.515 0.01 -0.00581661 -3.74847e-05 -1.51084e-05 1.11793
0.52 0.01 -0.00574395 -3.77747e-05 -1.49203e-05 1.10391
0.525 0.01 -0.00567079 -3.80507e-05 -1.47309e-05 1.0898
0.53 0.01 -0.00559713 -3.83122e-05 -1.45401e-05 1.0756
0.535 0.01 -0.00552301 -3.85587e-05 -1.43481e-05 1.06132
0.54 0.01 -0.00544847 -3.87899e-05 -1.41548e-05 1.04697
0.545 0.01 -0.00537351 -3.90057e-05 -1.39605e-05 1.03254
0.55 0.01 -0.00529819 -3.92057e-05 -1.37651e-05 1.01804
0.555 0.01 -0.00522252 -3.93899e-05 -1.35687e-05 1.00349
0.56 0.01 -0.00514653 -3.95581e-05 -1.33714e-05 0.988873
0.565 0.01 -0.00507025 -3.97104e-05 -1.31734e-05 0.974211
0.57 0.01 -0.00499372 -3.98468e-05 -1.29746e-05 0.959504
0.575 0.01 -0.00491696 -3.99673e-05 -1.27752e-05 0.944757
0.58 0.01 -0.00484 -4.00721e-05 -1.25752e-05 0.929976
0.585 0.01 -0.00476288 -4.01613e-05 -1.23747e-05 0.915166
0.59 0.01 -0.00468561 -4.0235e-05 -1.21738e-05 0.900333
0.595 0.01 -0.00460823 -4.02936e-05 -1.19726e-05 0.885482
0.6 0.01 -0.00453077 -4.03373e-05 -1.17711e-05 0.870618
0.605 0.01 -0.00445325 -4.03664e-05 -1.15695e-05 0.855745
0.61 0.01 -0.0043757 -4.03812e-05 -1.13677e-05 0.84087
0.615 0.01 -0.00429815 -4.0382e-05 -1.11659e-05 0.825996
0.62 0.01 -0.00422062 -4.03693e-05 -1.09641e-05 0.811128
0.625 0.01 -0.00414313 -4.03433e-05 -1.07624e-05 0.796272
0.63 0.01 -0.00406572 -4.03046e-05 -1.05609e-05 0.781431
0.635 0.01 -0.0039884 -4.02535e-05 -1.03596e-05 0.76661
0.64 0.01 -0.00391119 -4.01904e-05 -1.01586e-05 0.751812
0.645 0.01 -0.00383413 -4.01159e-05 -9.9579e-06 0.737043
0.65 0.01 -0.00375722 -4.00302e-05 -9.75761e-06 0.722305
0.655 0.01 -0.0036805 -3.9934e-05 -9.55779e-06 0.707603
0.66 0.01 -0.00360397 -3.98275e-05 -9.35846e-06 0.69294
0.665 0.01 -0.00352766 -3.97113e-05 -9.15969e-06 0.678319
0.67 0.01 -0.00345159 -3.95858e-05 -8.96153e-06 0.663744
0.675 0.01 -0.00337576 -3.94513e-05 -8.76401e-06 0.649218
0.68 0.01 -0.00330021 -3.93084e-05 -8.56718e-06 0.634744
0.685 0.01 -0.00322494 -3.91574e-05 -8.37109e-06 0.620324
0.69 0.01 -0.00314996 -3.89986e-05 -8.17577e-06 0.605962
0.695 0.01 -0.0030753 -3.88325e-05 -7.98126e-06 0.59166
0.7 0.01 -0.00300097 -3.86594e-05 -7.7876e-06 0.577421
0.705 0.01 -0.00292697 -3.84795e-05 -7.59481e-06 0.563246
0.71 0.01 -0.00285333 -3.82932e-05 -7.40294e-06 0.549139
0.715 0.01 -0.00278005 -3.81007e-05 -7.21201e-06 0.535101
0.72 0.01 -0.00270714 -3.79022e-05 -7.02206e-06 0.521135
0.725 0.01 -0.00263462 -3.76979e-05 -6.83312e-06 0.507243
0.73 0.01 -0.00256249 -3.7488e-05 -6.64521e-06 0.493426
0.735 0.01 -0.00249077 -3.72725e-05 -6.45836e-06 0.479688
0.74 0.01 -0.00241947 -3.70515e-05 -6.2726e-06 0.466028
0.745 0.01 -0.00234859 -3.68249e-05 -6.08795e-06 0.452451
0.75 0.01 -0.00227816 -3.65928e-05 -5.90445e-06 0.438958
0.755 0.01 -0.00220817 -3.63551e-05 -5.72212e-06 0.42555
0.76 0.01 -0.00213864 -3.61115e-05 -5.54099e-06 0.412231
0.765 0.01 -0.00206959 -3.5862e-05 -5.3611e-06 0.399001
0.77 0.01 -0.00200101 -3.56061e-05 -5.18246e-06 0.385864
0.775 0.01 -0.00193294 -3.53436e-05 -5.00512e-06 0.372822
0.78 0.01 -0.00186537 -3.50742e-05 -4.8291e-06 0.359877
0.785 0.01 -0.00179832 -3.47972e-05 -4.65445e-06 0.347033
0.79 0.01 -0.00173182 -3.45123e-05 -4.4812e-06 0.334291
0.795 0.01 -0.00166586 -3.42187e-05 -4.3094e-06 0.321656
0.8 0.01 -0.00160048 -3.39158e-05 -4.13908e-06 0.30913
0.805 0.01 -0.00153569 -3.36029e-05 -3.9703e-06 0.296718
0.81 0.01 -0.00147151 -3.32791e-05 -3.80311e-06 0.284423
0.815 0.01 -0.00140796 -3.29435e-05 -3.63756e-06 0.272249
0.82 0.01 -0.00134507 -3.2595e-05 -3.47372e-06 0.260201
0.825 0.01 -0.00128285 -3.22326e-05 -3.31166e-06 0.248285
0.83 0.01 -0.00122135 -3.18551e-05 -3.15144e-06 0.236505
0.835 0.01 -0.00116059 -3.14612e-05 -2.99314e-06 0.224868
0.84 0.01 -0.00110061 -3.10495e-05 -2.83686e-06 0.21338
0.845 0.01 -0.00104143 -3.06185e-05 -2.68268e-06 0.202048
0.85 0.01 -0.000983104 -3.01666e-05 -2.53071e-06 0.190879
0.855 0.01 -0.000925667 -2.96921e-05 -2.38104e-06 0.179882
0.86 0.01 -0.000869166 -2.9193e-05 -2.23381e-06 0.169065
0.865 0.01 -0.00081365 -2.86674e-05 -2.08913e-06 0.158438
0.87 0.01 -0.000759172 -2.81132e-05 -1.94716e-06 0.148011
0.875 0.01 -0.000705789 -2.7528e-05 -1.80802e-06 0.137795
0.88 0.01 -0.000653564 -2.69094e-05 -1.67189e-06 0.127802
0.885 0.01 -0.000602562 -2.62548e-05 -1.53894e-06 0.118045
0.89 0.01 -0.000552855 -2.55612e-05 -1.40935e-06 0.108537
0.895 0.01 -0.00050452 -2.48256e-05 -1.28334e-06 0.0992928
0.9 0.01 -0.000457639 -2.40447e-05 -1.16111e-06 0.0903285
0.905 0.01 -0.000412303 -2.3215e-05 -1.0429e-06 0.0816608
0.91 0.01 -0.000368606 -2.23326e-05 -9.28962e-07 0.0733077
0.915 0.01 -0.000326651 -2.13934e-05 -8.19574e-07 0.0652884
0.92 0.01 -0.000286548 -2.03931e-05 -7.1503e-07 0.0576234
0.925 0.01 -0.000248415 -1.9327e-05 -6.15645e-07 0.0503345
0.93 0.01 -0.000212376 -1.81902e-05 -5.2176e-07 0.0434446
0.935 0.01 -0.000178567 -1.69776e-05 -4.33742e-07 0.0369779
0.94 0.01 -0.000147128 -1.5684e-05 -3.51983e-07 0.0309596
0.945 0.01 -0.000118207 -1.43044e-05 -2.76901e-07 0.0254157
0.95 0.01 -9.19602e-05 -1.28341e-05 -2.08938e-07 0.0203724
0.955 0.01 -6.85452e-05 -1.12699e-05 -1.48557e-07 0.0158559
0.96 0.01 -4.812e-05 -9.61038e-06 -9.62369e-08 0.0118905
0.965 0.01 -3.08354e-05 -7.85848e-06 -5.24516e-08 0.0084974
0.97 0.01 -1.68239e-05 -6.02442e-06 -1.76502e-08 0.0056918
0.975 0.01 -6.18041e-06 -4.13194e-06 7.79419e-09 0.0034784
0.98 0.01 1.06772e-06 -2.22972e-06 2.36705e-08 0.00184471
0.985 0.01 5.0125e-06 -4.13122e-07 3.00924e-08 0.000750845
0.99 0.01 5.94916e-06 1.13551e-06 2.78024e-08 0.000115494
0.995 0.01 4.51105e-06 2.08047e-06 1.87376e-08 -0.000198438
1 0.01 1.87157e-06 1.87376e-06 6.99778e-09 -0.000378501
0 0.015 0 0 -0.00149726 0
0.005 0.015 0 0 0 -256.062
0.01 0.015 -0.152578 0.184378 -0.00179923 -79.3732
0.015 0.015 -0.20552 -0.0243935 -0.00184378 -16.6603
0.02 0.015 -0.20356 -0.0578001 -0.00155529 2.43408
0.025 0.015 -0.183636 -0.0521135 -0.00126578 8.14747
0.03 0.015 -0.160714 -0.0408118 -0.00103416 9.53515
0.035 0.015 -0.139744 -0.031069 -0.000857662 9.45278
0.04 0.015 -0.1219 -0.0237542 -0.000723466 8.8854
0.045 0.015 -0.107082 -0.0184294 -0.00062012 8.19326
0.05 0.015 -0.0948433 -0.0145443 -0.000539172 7.50974
0.055 0.015 -0.0847064 -0.01167 -0.000474676 6.88122
0.06 0.015 -0.0762571 -0.00950643 -0.000422471 6.31988
0.065 0.015 -0.0691604 -0.00784912 -0.000379612 5.82458
0.07 0.015 -0.0631524 -0.00655861 -0.00034398 5.38939
0.075 0.015 -0.0580264 -0.00553856 -0.000314025 5.00716
0.08 0.015 -0.053621 -0.00472128 -0.000288594 4.67087
0.085 0.015 -0.0498086 -0.00405841 -0.000266812 4.37419
0.09 0.015 -0.0464887 -0.00351482 -0.00024801 4.11159
0.095 0.015 -0.0435807 -0.00306455 -0.000231664 3.87837
0.1 0.015 -0.0410198 -0.00268816 -0.000217364 3.67051
0.105 0.015 -0.0387535 -0.00237093 -0.000204782 3.48461
0.11 0.015 -0.0367388 -0.0021015 -0.000193654 3.31781
0.115 0.015 -0.0349404 -0.00187107 -0.000183767 3.16767
0.12 0.015 -0.0333288 -0.00167275 -0.000174943 3.03211
0.125 0.015 -0.0318797 -0.00150104 -0.000167039 2.90937
0.13 0.015 -0.0305724 -0.00135158 -0.000159933 2.79795
0.135 0.015 -0.0293895 -0.00122082 -0.000153523 2.69655
0.14 0.015 -0.0283162 -0.00110591 -0.000147724 2.60404
0.145 0.015 -0.0273399 -0.0010045 -0.000142464 2.51946
0.15 0.015 -0.0264497 -0.000914643 -0.000137679 2.44196
0.155 0.015 -0.0256361 -0.000834749 -0.000133317 2.37081
0.16 0.015 -0.024891 -0.000763478 -0.000129332 2.30536
0.165 0.015 -0.0242072 -0.000699709 -0.000125683 2.24506
0.17 0.015 -0.0235787 -0.000642495 -0.000122335 2.18939
0.175 0.015 -0.0229998 -0.000591033 -0.000119258 2.13792
0.18 0.015 -0.0224657 -0.000544642 -0.000116425 2.09025
0.185 0.015 -0.0219721 -0.000502736 -0.000113811 2.04603
0.19 0.015 -0.0215153 -0.000464813 -0.000111397 2.00495
0.195 0.015 -0.0210919 -0.000430439 -0.000109164 1.96673
0.2 0.015 -0.0206987 -0.000399238 -0.000107093 1.93111
0.205 0.015 -0.020333 -0.000370882 -0.000105171 1.89786
0.21 0.015 -0.0199924 -0.000345085 -0.000103385 1.86679
0.215 0.015 -0.0196748 -0.000321598 -0.000101721 1.8377
0.22 0.015 -0.0193779 -0.0003002 -0.000100169 1.81041
0.225 0.015 -0.0191001 -0.000280696 -9.87194e-05 1.78479
0.23 0.015 -0.0188396 -0.000262915 -9.73627e-05 1.76068
0.235 0.015 -0.0185951 -0.000246703 -9.60908e-05 1.73796
0.24 0.015 -0.0183649 -0.000231924 -9.48962e-05 1.71651
0.245 0.015 -0.018148 -0.000218456 -9.37721e-05 1.69621
0.25 0.015 -0.0179431 -0.000206191 -9.27122e-05 1.67698
0.255 0.015 -0.0177492 -0.00019503 -9.17108e-05 1.65871
0.26 0.015 -0.0175652 -0.000184885 -9.07625e-05 1.64133
0.265 0.015 -0.0173904 -0.000175676 -8.98626e-05 1.62475
0.27 0.015 -0.0172238 -0.000167331 -8.90065e-05 1.6089
0.275 0.015 -0.0170646 -0.000159784 -8.819e-05 1.59371
0.28 0.015 -0.0169122 -0.000152974 -8.74094e-05 1.57913
0.285 0.015 -0.0167659 -0.000146848 -8.6661e-05 1.56509
0.29 0.015 -0.0166251 -0.000141355 -8.59417e-05 1.55154
0.295 0.015 -0.0164892 -0.000136449 -8.52483e-05 1.53843
0.3 0.015 -0.0163576 -0.000132087 -8.45781e-05 1.52572
0.305 0.015 -0.01623 -0.000128231 -8.39283e-05 1.51336
0.31 0.015 -0.0161058 -0.000124845 -8.32967e-05 1.50131
0.315 0.015 -0.0159846 -0.000121894 -8.26808e-05 1.48954
0.32 0.015 -0.015866 -0.000119348 -8.20787e-05 1.478
0.325 0.015 -0.0157497 -0.000117177 -8.14883e-05 1.46668
0.33 0.015 -0.0156352 -0.000115355 -8.09079e-05 1.45553
0.335 0.015 -0.0155224 -0.000113856 -8.03358e-05 1.44453
0.34 0.015 -0.0154109 -0.000112657 -7.97704e-05 1.43366
0.345 0.015 -0.0153004 -0.000111735 -7.92103e-05 1.42289
0.35 0.015 -0.0151906 -0.00011107 -7.86541e-05 1.4122
0.355 0.015 -0.0150815 -0.000110641 -7.81006e-05 1.40157
0.36 0.015 -0.0149727 -0.00011043 -7.75488e-05 1.39098
0.365 0.015 -0.014864 -0.000110419 -7.69975e-05 1.38041
0.37 0.015 -0.0147553 -0.000110593 -7.64457e-05 1.36985
0.375 0.015 -0.0146464 -0.000110935 -7.58927e-05 1.35929
0.38 0.015 -0.0145371 -0.00011143 -7.53375e-05 1.3487
0.385 0.015 -0.0144273 -0.000112064 -7.47796e-05 1.33808
0.39 0.015 -0.0143169 -0.000112824 -7.42181e-05 1.32742
0.395 0.015 -0.0142058 -0.000113698 -7.36525e-05 1.3167
0.4 0.015 -0.0140939 -0.000114672 -7.30823e-05 1.30592
0.405 0.015 -0.0139811 -0.000115736 -7.2507e-05 1.29507
0.41 0.015 -0.0138672 -0.000116879 -7.19262e-05 1.28415
0.415 0.015 -0.0137523 -0.00011809 -7.13394e-05 1.27314
0.42 0.015 -0.0136363 -0.000119361 -7.07465e-05 1.26204
0.425 0.015 -0.013519 -0.00012068 -7.0147e-05 1.25085
0.43 0.015 -0.0134006 -0.00012204 -6.95409e-05 1.23957
0.435 0.015 -0.0132809 -0.000123432 -6.89279e-05 1.22818
0.44 0.015 -0.01316 -0.000124849 -6.83078e-05 1.2167
0.445 0.015 -0.0130377 -0.000126282 -6.76806e-05 1.2051
0.45 0.015 -0.0129141 -0.000127725 -6.70463e-05 1.19341
0.455 0.015 -0.0127893 -0.000129172 -6.64046e-05 1.18161
0.46 0.015 -0.012663 -0.000130616 -6.57558e-05 1.1697
0.465 0.015 -0.0125355 -0.00013205 -6.50997e-05 1.15769
0.47 0.015 -0.0124067 -0.000133471 -6.44365e-05 1.14557
0.475 0.015 -0.0122766 -0.000134872 -6.37662e-05 1.13335
0.48 0.015 -0.0121452 -0.000136249 -6.3089e-05 1.12102
0.485 0.015 -0.0120126 -0.000137598 -6.2405e-05 1.1086
0.49 0.015 -0.0118788 -0.000138914 -6.17143e-05 1.09608
0.495 0.015 -0.0117438 -0.000140194 -6.1017e-05 1.08347
0.5 0.015 -0.0116076 -0.000141434 -6.03135e-05 1.07076
0.505 0.015 -0.0114704 -0.000142631 -5.96039e-05 1.05797
0.51 0.015 -0.0113321 -0.000143782 -5.88884e-05 1.04509
0.515 0.015 -0.0111927 -0.000144886 -5.81672e-05 1.03213
0.52 0.015 -0.0110524 -0.000145939 -5.74407e-05 1.01909
0.525 0.015 -0.0109111 -0.00014694 -5.6709e-05 1.00598
0.53 0.015 -0.010769 -0.000147887 -5.59724e-05 0.992796
0.535 0.015 -0.010626 -0.000148778 -5.52313e-05 0.979549
0.54 0.015 -0.0104823 -0.000149613 -5.44858e-05 0.966241
0.545 0.015 -0.0103378 -0.000150391 -5.37363e-05 0.952876
0.55 0.015 -0.0101926 -0.00015111 -5.2983e-05 0.93946
0.555 0.015 -0.0100469 -0.00015177 -5.22262e-05 0.925997
0.56 0.015 -0.00990055 -0.000152371 -5.14663e-05 0.91249
0.565 0.015 -0.00975372 -0.000152914 -5.07036e-05 0.898946
0.57 0.015 -0.00960643 -0.000153396 -4.99382e-05 0.885368
0.575 0.015 -0.00945875 -0.000153821 -4.91706e-05 0.871761
0.58 0.015 -0.00931072 -0.000154186 -4.8401e-05 0.858129
0.585 0.015 -0.0091624 -0.000154494 -4.76298e-05 0.844478
0.59 0.015 -0.00901384 -0.000154745 -4.68571e-05 0.830812
0.595 0.015 -0.0088651 -0.000154939 -4.60833e-05 0.817134
0.6 0.015 -0.00871623 -0.000155078 -4.53086e-05 0.80345
0.605 0.015 -0.00856728 -0.000155163 -4.45334e-05 0.789764
0.61 0.015 -0.00841829 -0.000155195 -4.37579e-05 0.776079
0.615 0.015 -0.00826932 -0.000155175 -4.29824e-05 0.762401
0.62 0.015 -0.00812041 -0.000155105 -4.2207e-05 0.748732
0.625 0.015 -0.00797161 -0.000154986 -4.14322e-05 0.735077
0.63 0.015 -0.00782297 -0.00015482 -4.0658e-05 0.72144
0.635 0.015 -0.00767452 -0.000154607 -3.98848e-05 0.707824
0.64 0.015 -0.00752632 -0.00015435 -3.91127e-05 0.694233
0.645 0.015 -0.00737839 -0.000154051 -3.83421e-05 0.68067
0.65 0.015 -0.00723078 -0.00015371 -3.7573e-05 0.667138
0.655 0.015 -0.00708353 -0.00015333 -3.68057e-05 0.653641
0.66 0.015 -0.00693667 -0.000152912 -3.60404e-05 0.640182
0.665 0.015 -0.00679023 -0.000152458 -3.52773e-05 0.626763
0.67 0.015 -0.00664426 -0.000151969 -3.45165e-05 0.613387
0.675 0.015 -0.00649877 -0.000151447 -3.37583e-05 0.600058
0.68 0.015 -0.0063538 -0.000150893 -3.30027e-05 0.586777
0.685 0.015 -0.00620939 -0.000150309 -3.225e-05 0.573547
0.69 0.015 -0.00606554 -0.000149697 -3.15003e-05 0.560371
0.695 0.015 -0.00592231 -0.000149057 -3.07536e-05 0.54725
0.7 0.015 -0.0057797 -0.00014839 -3.00103e-05 0.534187
0.705 0.015 -0.00563774 -0.000147699 -2.92703e-05 0.521184
0.71 0.015 -0.00549645 -0.000146983 -2.85338e-05 0.508243
0.715 0.015 -0.00535586 -0.000146244 -2.7801e-05 0.495366
0.72 0.015 -0.00521599 -0.000145483 -2.70719e-05 0.482555
0.725 0.015 -0.00507686 -0.0001447 -2.63467e-05 0.469811
0.73 0.015 -0.00493849 -0.000143895 -2.56254e-05 0.457137
0.735 0.015 -0.0048009 -0.000143069 -2.49082e-05 0.444533
0.74 0.015 -0.00466411 -0.000142222 -2.41951e-05 0.432003
0.745 0.015 -0.00452814 -0.000141355 -2.34864e-05 0.419548
0.75 0.015 -0.004393 -0.000140465 -2.2782e-05 0.40717
0.755 0.015 -0.00425873 -0.000139555 -2.20821e-05 0.39487
0.76 0.015 -0.00412534 -0.000138622 -2.13868e-05 0.382651
0.765 0.015 -0.00399285 -0.000137665 -2.06962e-05 0.370515
0.77 0.015 -0.00386128 -0.000136685 -2.00105e-05 0.358463
0.775 0.015 -0.00373067 -0.000135679 -1.93297e-05 0.346499
0.78 0.015 -0.00360103 -0.000134646 -1.8654e-05 0.334624
0.785 0.015 -0.0034724 -0.000133583 -1.79835e-05 0.322841
0.79 0.015 -0.00334479 -0.00013249 -1.73185e-05 0.311153