Title=" Lid Driven Flow"
VARIABLES="X","Y","U","V","psi","xi"
ZONE T= "BOX", I= 257, J=257, F=POINT
0 0 0 0 -306.148 0
0.00390625 0 0 0 0 0
0.0078125 0 0 0 0 0
0.0117188 0 0 0 0 -416.842
0.015625 0 0 0 0 -326.394
0.0195313 0 0 0 0 -259.814
0.0234375 0 0 0 0 -212.848
0.0273438 0 0 0 0 -179.57
0.03125 0 0 0 0 -155.501
0.0351563 0 0 0 0 -137.622
0.0390625 0 0 0 0 -123.965
0.0429688 0 0 0 0 -113.247
0.046875 0 0 0 0 -104.626
0.0507813 0 0 0 0 -97.537
0.0546875 0 0 0 0 -91.5964
0.0585938 0 0 0 0 -86.5361
0.0625 0 0 0 0 -82.165
0.0664063 0 0 0 0 -78.3439
0.0703125 0 0 0 0 -74.9692
0.0742188 0 0 0 0 -71.9623
0.078125 0 0 0 0 -69.2624
0.0820313 0 0 0 0 -66.8219
0.0859375 0 0 0 0 -64.6028
0.0898438 0 0 0 0 -62.5743
0.09375 0 0 0 0 -60.7114
0.0976563 0 0 0 0 -58.9932
0.101563 0 0 0 0 -57.4025
0.105469 0 0 0 0 -55.9247
0.109375 0 0 0 0 -54.5474
0.113281 0 0 0 0 -53.26
0.117188 0 0 0 0 -52.0535
0.121094 0 0 0 0 -50.9198
0.125 0 0 0 0 -49.8523
0.128906 0 0 0 0 -48.8448
0.132813 0 0 0 0 -47.892
0.136719 0 0 0 0 -46.9894
0.140625 0 0 0 0 -46.1327
0.144531 0 0 0 0 -45.3183
0.148438 0 0 0 0 -44.5429
0.152344 0 0 0 0 -43.8035
0.15625 0 0 0 0 -43.0975
0.160156 0 0 0 0 -42.4225
0.164063 0 0 0 0 -41.7764
0.167969 0 0 0 0 -41.1571
0.171875 0 0 0 0 -40.5628
0.175781 0 0 0 0 -39.9921
0.179688 0 0 0 0 -39.4433
0.183594 0 0 0 0 -38.9151
0.1875 0 0 0 0 -38.4063
0.191406 0 0 0 0 -37.9158
0.195313 0 0 0 0 -37.4424
0.199219 0 0 0 0 -36.9852
0.203125 0 0 0 0 -36.5433
0.207031 0 0 0 0 -36.116
0.210938 0 0 0 0 -35.7023
0.214844 0 0 0 0 -35.3016
0.21875 0 0 0 0 -34.9133
0.222656 0 0 0 0 -34.5366
0.226563 0 0 0 0 -34.1712
0.230469 0 0 0 0 -33.8163
0.234375 0 0 0 0 -33.4715
0.238281 0 0 0 0 -33.1363
0.242188 0 0 0 0 -32.8103
0.246094 0 0 0 0 -32.4931
0.25 0 0 0 0 -32.1843
0.253906 0 0 0 0 -31.8835
0.257813 0 0 0 0 -31.5904
0.261719 0 0 0 0 -31.3046
0.265625 0 0 0 0 -31.0259
0.269531 0 0 0 0 -30.7539
0.273438 0 0 0 0 -30.4884
0.277344 0 0 0 0 -30.2291
0.28125 0 0 0 0 -29.9758
0.285156 0 0 0 0 -29.7283
0.289063 0 0 0 0 -29.4863
0.292969 0 0 0 0 -29.2496
0.296875 0 0 0 0 -29.018
0.300781 0 0 0 0 -28.7914
0.304688 0 0 0 0 -28.5695
0.308594 0 0 0 0 -28.3522
0.3125 0 0 0 0 -28.1394
0.316406 0 0 0 0 -27.9308
0.320313 0 0 0 0 -27.7263
0.324219 0 0 0 0 -27.5258
0.328125 0 0 0 0 -27.3291
0.332031 0 0 0 0 -27.1362
0.335938 0 0 0 0 -26.9469
0.339844 0 0 0 0 -26.761
0.34375 0 0 0 0 -26.5785
0.347656 0 0 0 0 -26.3992
0.351563 0 0 0 0 -26.2231
0.355469 0 0 0 0 -26.0501
0.359375 0 0 0 0 -25.88
0.363281 0 0 0 0 -25.7127
0.367188 0 0 0 0 -25.5483
0.371094 0 0 0 0 -25.3865
0.375 0 0 0 0 -25.2273
0.378906 0 0 0 0 -25.0707
0.382813 0 0 0 0 -24.9165
0.386719 0 0 0 0 -24.7646
0.390625 0 0 0 0 -24.6151
0.394531 0 0 0 0 -24.4679
0.398438 0 0 0 0 -24.3228
0.402344 0 0 0 0 -24.1798
0.40625 0 0 0 0 -24.0388
0.410156 0 0 0 0 -23.8999
0.414063 0 0 0 0 -23.7629
0.417969 0 0 0 0 -23.6277
0.421875 0 0 0 0 -23.4944
0.425781 0 0 0 0 -23.3628
0.429688 0 0 0 0 -23.233
0.433594 0 0 0 0 -23.1048
0.4375 0 0 0 0 -22.9782
0.441406 0 0 0 0 -22.8533
0.445313 0 0 0 0 -22.7298
0.449219 0 0 0 0 -22.6078
0.453125 0 0 0 0 -22.4873
0.457031 0 0 0 0 -22.3681
0.460938 0 0 0 0 -22.2503
0.464844 0 0 0 0 -22.1339
0.46875 0 0 0 0 -22.0187
0.472656 0 0 0 0 -21.9047
0.476563 0 0 0 0 -21.7919
0.480469 0 0 0 0 -21.6803
0.484375 0 0 0 0 -21.5698
0.488281 0 0 0 0 -21.4604
0.492188 0 0 0 0 -21.352
0.496094 0 0 0 0 -21.2446
0.5 0 0 0 0 -21.1382
0.503906 0 0 0 0 -21.0328
0.507813 0 0 0 0 -20.9282
0.511719 0 0 0 0 -20.8246
0.515625 0 0 0 0 -20.7217
0.519531 0 0 0 0 -20.6196
0.523438 0 0 0 0 -20.5183
0.527344 0 0 0 0 -20.4177
0.53125 0 0 0 0 -20.3178
0.535156 0 0 0 0 -20.2185
0.539063 0 0 0 0 -20.1199
0.542969 0 0 0 0 -20.0218
0.546875 0 0 0 0 -19.9242
0.550781 0 0 0 0 -19.827
0.554688 0 0 0 0 -19.7304
0.558594 0 0 0 0 -19.634
0.5625 0 0 0 0 -19.5381
0.566406 0 0 0 0 -19.4424
0.570313 0 0 0 0 -19.3469
0.574219 0 0 0 0 -19.2517
0.578125 0 0 0 0 -19.1565
0.582031 0 0 0 0 -19.0615
0.585938 0 0 0 0 -18.9664
0.589844 0 0 0 0 -18.8713
0.59375 0 0 0 0 -18.7761
0.597656 0 0 0 0 -18.6806
0.601563 0 0 0 0 -18.585
0.605469 0 0 0 0 -18.489
0.609375 0 0 0 0 -18.3925
0.613281 0 0 0 0 -18.2956
0.617188 0 0 0 0 -18.1981
0.621094 0 0 0 0 -18.1
0.625 0 0 0 0 -18.0012
0.628906 0 0 0 0 -17.9015
0.632813 0 0 0 0 -17.8009
0.636719 0 0 0 0 -17.6993
0.640625 0 0 0 0 -17.5965
0.644531 0 0 0 0 -17.4927
0.648438 0 0 0 0 -17.3875
0.652344 0 0 0 0 -17.281
0.65625 0 0 0 0 -17.173
0.660156 0 0 0 0 -17.0635
0.664063 0 0 0 0 -16.9525
0.667969 0 0 0 0 -16.8397
0.671875 0 0 0 0 -16.7253
0.675781 0 0 0 0 -16.6091
0.679688 0 0 0 0 -16.4911
0.683594 0 0 0 0 -16.3713
0.6875 0 0 0 0 -16.2496
0.691406 0 0 0 0 -16.1262
0.695313 0 0 0 0 -16.001
0.699219 0 0 0 0 -15.8741
0.703125 0 0 0 0 -15.7456
0.707031 0 0 0 0 -15.6156
0.710938 0 0 0 0 -15.4844
0.714844 0 0 0 0 -15.352
0.71875 0 0 0 0 -15.2186
0.722656 0 0 0 0 -15.0847
0.726563 0 0 0 0 -14.9505
0.730469 0 0 0 0 -14.8163
0.734375 0 0 0 0 -14.6825
0.738281 0 0 0 0 -14.5497
0.742188 0 0 0 0 -14.4183
0.746094 0 0 0 0 -14.2889
0.75 0 0 0 0 -14.1622
0.753906 0 0 0 0 -14.0387
0.757813 0 0 0 0 -13.9192
0.761719 0 0 0 0 -13.8045
0.765625 0 0 0 0 -13.6953
0.769531 0 0 0 0 -13.5927
0.773438 0 0 0 0 -13.4975
0.777344 0 0 0 0 -13.4106
0.78125 0 0 0 0 -13.3331
0.785156 0 0 0 0 -13.266
0.789063 0 0 0 0 -13.2104
0.792969 0 0 0 0 -13.1675
0.796875 0 0 0 0 -13.1383
0.800781 0 0 0 0 -13.1241
0.804688 0 0 0 0 -13.126
0.808594 0 0 0 0 -13.1453
0.8125 0 0 0 0 -13.1833
0.816406 0 0 0 0 -13.2411
0.820313 0 0 0 0 -13.3202
0.824219 0 0 0 0 -13.4219
0.828125 0 0 0 0 -13.5474
0.832031 0 0 0 0 -13.6984
0.835938 0 0 0 0 -13.8761
0.839844 0 0 0 0 -14.0822
0.84375 0 0 0 0 -14.3183
0.847656 0 0 0 0 -14.586
0.851563 0 0 0 0 -14.8872
0.855469 0 0 0 0 -15.2238
0.859375 0 0 0 0 -15.5977
0.863281 0 0 0 0 -16.0113
0.867188 0 0 0 0 -16.4669
0.871094 0 0 0 0 -16.9671
0.875 0 0 0 0 -17.5147
0.878906 0 0 0 0 -18.1127
0.882813 0 0 0 0 -18.7644
0.886719 0 0 0 0 -19.4734
0.890625 0 0 0 0 -20.2435
0.894531 0 0 0 0 -21.079
0.898438 0 0 0 0 -21.9844
0.902344 0 0 0 0 -22.9646
0.90625 0 0 0 0 -24.0248
0.910156 0 0 0 0 -25.1707
0.914063 0 0 0 0 -26.4086
0.917969 0 0 0 0 -27.7452
0.921875 0 0 0 0 -29.1879
0.925781 0 0 0 0 -30.7449
0.929688 0 0 0 0 -32.4255
0.933594 0 0 0 0 -34.2402
0.9375 0 0 0 0 -36.2015
0.941406 0 0 0 0 -38.3245
0.945313 0 0 0 0 -40.6275
0.949219 0 0 0 0 -43.1341
0.953125 0 0 0 0 -45.875
0.957031 0 0 0 0 -48.8909
0.960938 0 0 0 0 -52.238
0.964844 0 0 0 0 -55.9943
0.96875 0 0 0 0 -60.2723
0.972656 0 0 0 0 -65.2367
0.976563 0 0 0 0 -71.1372
0.980469 0 0 0 0 -78.3659
0.984375 0 0 0 0 -87.5694
0.988281 0 0 0 0 -99.8873
0.992188 0 0 0 0 -117.524
0.996094 0 0 0 0 -145.312
1 0 0 0 0 -195.808
0 0.00390625 0 0 0 0
0.00390625 0.00390625 0 0 0 0
0.0078125 0.00390625 0 0 0 -0.000308026
0.0117188 0.00390625 0 0 0 -0.000591619
0.015625 0.00390625 0 0 0 -0.000543075
0.0195313 0.00390625 0 0 0 -5.39641e-05
0.0234375 0.00390625 0 0 0 0.000888938
0.0273438 0.00390625 0 0 0 0.00225776
0.03125 0.00390625 0 0 0 0.00400896
0.0351563 0.00390625 0 0 0 0.0060949
0.0390625 0.00390625 0 0 0 0.00846909
0.0429688 0.00390625 0 0 0 0.0110884
0.046875 0.00390625 0 0 0 0.0139141
0.0507813 0.00390625 0 0 0 0.0169119
0.0546875 0.00390625 0 0 0 0.0200517
0.0585938 0.00390625 0 0 0 0.0233078
0.0625 0.00390625 0 0 0 0.0266579
0.0664063 0.00390625 0 0 0 0.0300832
0.0703125 0.00390625 0 0 0 0.0335677
0.0742188 0.00390625 0 0 0 0.0370982
0.078125 0.00390625 0 0 0 0.0406634
0.0820313 0.00390625 0 0 0 0.0442542
0.0859375 0.00390625 0 0 0 0.0478628
0.0898438 0.00390625 0 0 0 0.0514832
0.09375 0.00390625 0 0 0 0.0551103
0.0976563 0.00390625 0 0 0 0.0587399
0.101563 0.00390625 0 0 0 0.0623687
0.105469 0.00390625 0 0 0 0.0659941
0.109375 0.00390625 0 0 0 0.0696139
0.113281 0.00390625 0 0 0 0.0732265
0.117188 0.00390625 0 0 0 0.0768305
0.121094 0.00390625 0 0 0 0.0804247
0.125 0.00390625 0 0 0 0.0840084
0.128906 0.00390625 0 0 0 0.0875807
0.132813 0.00390625 0 0 0 0.091141
0.136719 0.00390625 0 0 0 0.0946889
0.140625 0.00390625 0 0 0 0.0982238
0.144531 0.00390625 0 0 0 0.101745
0.148438 0.00390625 0 0 0 0.105253
0.152344 0.00390625 0 0 0 0.108747
0.15625 0.00390625 0 0 0 0.112227
0.160156 0.00390625 0 0 0 0.115691
0.164063 0.00390625 0 0 0 0.119141
0.167969 0.00390625 0 0 0 0.122575
0.171875 0.00390625 0 0 0 0.125993
0.175781 0.00390625 0 0 0 0.129395
0.179688 0.00390625 0 0 0 0.13278
0.183594 0.00390625 0 0 0 0.136149
0.1875 0.00390625 0 0 0 0.1395
0.191406 0.00390625 0 0 0 0.142834
0.195313 0.00390625 0 0 0 0.14615
0.199219 0.00390625 0 0 0 0.149447
0.203125 0.00390625 0 0 0 0.152725
0.207031 0.00390625 0 0 0 0.155984
0.210938 0.00390625 0 0 0 0.159224
0.214844 0.00390625 0 0 0 0.162443
0.21875 0.00390625 0 0 0 0.165642
0.222656 0.00390625 0 0 0 0.16882
0.226563 0.00390625 0 0 0 0.171977
0.230469 0.00390625 0 0 0 0.175112
0.234375 0.00390625 0 0 0 0.178225
0.238281 0.00390625 0 0 0 0.181315
0.242188 0.00390625 0 0 0 0.184383
0.246094 0.00390625 0 0 0 0.187427
0.25 0.00390625 0 0 0 0.190447
0.253906 0.00390625 0 0 0 0.193443
0.257813 0.00390625 0 0 0 0.196414
0.261719 0.00390625 0 0 0 0.199361
0.265625 0.00390625 0 0 0 0.202281
0.269531 0.00390625 0 0 0 0.205176
0.273438 0.00390625 0 0 0 0.208044
0.277344 0.00390625 0 0 0 0.210886
0.28125 0.00390625 0 0 0 0.2137
0.285156 0.00390625 0 0 0 0.216487
0.289063 0.00390625 0 0 0 0.219245
0.292969 0.00390625 0 0 0 0.221975
0.296875 0.00390625 0 0 0 0.224676
0.300781 0.00390625 0 0 0 0.227348
0.304688 0.00390625 0 0 0 0.22999
0.308594 0.00390625 0 0 0 0.232602
0.3125 0.00390625 0 0 0 0.235183
0.316406 0.00390625 0 0 0 0.237732
0.320313 0.00390625 0 0 0 0.240251
0.324219 0.00390625 0 0 0 0.242737
0.328125 0.00390625 0 0 0 0.245191
0.332031 0.00390625 0 0 0 0.247612
0.335938 0.00390625 0 0 0 0.25
0.339844 0.00390625 0 0 0 0.252354
0.34375 0.00390625 0 0 0 0.254675
0.347656 0.00390625 0 0 0 0.25696
0.351563 0.00390625 0 0 0 0.259211
0.355469 0.00390625 0 0 0 0.261426
0.359375 0.00390625 0 0 0 0.263606
0.363281 0.00390625 0 0 0 0.265749
0.367188 0.00390625 0 0 0 0.267855
0.371094 0.00390625 0 0 0 0.269925
0.375 0.00390625 0 0 0 0.271956
0.378906 0.00390625 0 0 0 0.27395
0.382813 0.00390625 0 0 0 0.275906
0.386719 0.00390625 0 0 0 0.277823
0.390625 0.00390625 0 0 0 0.2797
0.394531 0.00390625 0 0 0 0.281538
0.398438 0.00390625 0 0 0 0.283335
0.402344 0.00390625 0 0 0 0.285093
0.40625 0.00390625 0 0 0 0.286809
0.410156 0.00390625 0 0 0 0.288484
0.414063 0.00390625 0 0 0 0.290117
0.417969 0.00390625 0 0 0 0.291708
0.421875 0.00390625 0 0 0 0.293256
0.425781 0.00390625 0 0 0 0.294761
0.429688 0.00390625 0 0 0 0.296223
0.433594 0.00390625 0 0 0 0.297641
0.4375 0.00390625 0 0 0 0.299014
0.441406 0.00390625 0 0 0 0.300343
0.445313 0.00390625 0 0 0 0.301627
0.449219 0.00390625 0 0 0 0.302865
0.453125 0.00390625 0 0 0 0.304058
0.457031 0.00390625 0 0 0 0.305204
0.460938 0.00390625 0 0 0 0.306303
0.464844 0.00390625 0 0 0 0.307355
0.46875 0.00390625 0 0 0 0.30836
0.472656 0.00390625 0 0 0 0.309317
0.476563 0.00390625 0 0 0 0.310226
0.480469 0.00390625 0 0 0 0.311085
0.484375 0.00390625 0 0 0 0.311896
0.488281 0.00390625 0 0 0 0.312658
0.492188 0.00390625 0 0 0 0.313369
0.496094 0.00390625 0 0 0 0.31403
0.5 0.00390625 0 0 0 0.314641
0.503906 0.00390625 0 0 0 0.315201
0.507813 0.00390625 0 0 0 0.31571
0.511719 0.00390625 0 0 0 0.316167
0.515625 0.00390625 0 0 0 0.316571
0.519531 0.00390625 0 0 0 0.316924
0.523438 0.00390625 0 0 0 0.317224
0.527344 0.00390625 0 0 0 0.317471
0.53125 0.00390625 0 0 0 0.317664
0.535156 0.00390625 0 0 0 0.317804
0.539063 0.00390625 0 0 0 0.31789
0.542969 0.00390625 0 0 0 0.317922
0.546875 0.00390625 0 0 0 0.317899
0.550781 0.00390625 0 0 0 0.317821
0.554688 0.00390625 0 0 0 0.317688
0.558594 0.00390625 0 0 0 0.3175
0.5625 0.00390625 0 0 0 0.317256
0.566406 0.00390625 0 0 0 0.316956
0.570313 0.00390625 0 0 0 0.316599
0.574219 0.00390625 0 0 0 0.316187
0.578125 0.00390625 0 0 0 0.315717
0.582031 0.00390625 0 0 0 0.315191
0.585938 0.00390625 0 0 0 0.314607
0.589844 0.00390625 0 0 0 0.313966
0.59375 0.00390625 0 0 0 0.313268
0.597656 0.00390625 0 0 0 0.312511
0.601563 0.00390625 0 0 0 0.311697
0.605469 0.00390625 0 0 0 0.310825
0.609375 0.00390625 0 0 0 0.309894
0.613281 0.00390625 0 0 0 0.308905
0.617188 0.00390625 0 0 0 0.307858
0.621094 0.00390625 0 0 0 0.306752
0.625 0.00390625 0 0 0 0.305587
0.628906 0.00390625 0 0 0 0.304363
0.632813 0.00390625 0 0 0 0.303081
0.636719 0.00390625 0 0 0 0.301739
0.640625 0.00390625 0 0 0 0.300339
0.644531 0.00390625 0 0 0 0.29888
0.648438 0.00390625 0 0 0 0.297361
0.652344 0.00390625 0 0 0 0.295783
0.65625 0.00390625 0 0 0 0.294147
0.660156 0.00390625 0 0 0 0.292451
0.664063 0.00390625 0 0 0 0.290696
0.667969 0.00390625 0 0 0 0.288883
0.671875 0.00390625 0 0 0 0.287011
0.675781 0.00390625 0 0 0 0.285079
0.679688 0.00390625 0 0 0 0.28309
0.683594 0.00390625 0 0 0 0.281041
0.6875 0.00390625 0 0 0 0.278935
0.691406 0.00390625 0 0 0 0.27677
0.695313 0.00390625 0 0 0 0.274547
0.699219 0.00390625 0 0 0 0.272266
0.703125 0.00390625 0 0 0 0.269928
0.707031 0.00390625 0 0 0 0.267532
0.710938 0.00390625 0 0 0 0.265079
0.714844 0.00390625 0 0 0 0.262569
0.71875 0.00390625 0 0 0 0.260003
0.722656 0.00390625 0 0 0 0.25738
0.726563 0.00390625 0 0 0 0.254701
0.730469 0.00390625 0 0 0 0.251967
0.734375 0.00390625 0 0 0 0.249178
0.738281 0.00390625 0 0 0 0.246333
0.742188 0.00390625 0 0 0 0.243435
0.746094 0.00390625 0 0 0 0.240482
0.75 0.00390625 0 0 0 0.237475
0.753906 0.00390625 0 0 0 0.234416
0.757813 0.00390625 0 0 0 0.231304
0.761719 0.00390625 0 0 0 0.228139
0.765625 0.00390625 0 0 0 0.224923
0.769531 0.00390625 0 0 0 0.221656
0.773438 0.00390625 0 0 0 0.218339
0.777344 0.00390625 0 0 0 0.214971
0.78125 0.00390625 0 0 0 0.211554
0.785156 0.00390625 0 0 0 0.208088
0.789063 0.00390625 0 0 0 0.204574
0.792969 0.00390625 0 0 0 0.201013
0.796875 0.00390625 0 0 0 0.197405
0.800781 0.00390625 0 0 0 0.19375
0.804688 0.00390625 0 0 0 0.19005
0.808594 0.00390625 0 0 0 0.186305
0.8125 0.00390625 0 0 0 0.182517
0.816406 0.00390625 0 0 0 0.178685
0.820313 0.00390625 0 0 0 0.17481
0.824219 0.00390625 0 0 0 0.170893
0.828125 0.00390625 0 0 0 0.166936
0.832031 0.00390625 0 0 0 0.162938
0.835938 0.00390625 0 0 0 0.158901
0.839844 0.00390625 0 0 0 0.154825
0.84375 0.00390625 0 0 0 0.150711
0.847656 0.00390625 0 0 0 0.146561
0.851563 0.00390625 0 0 0 0.142374
0.855469 0.00390625 0 0 0 0.138152
0.859375 0.00390625 0 0 0 0.133895
0.863281 0.00390625 0 0 0 0.129605
0.867188 0.00390625 0 0 0 0.125282
0.871094 0.00390625 0 0 0 0.120928
0.875 0.00390625 0 0 0 0.116544
0.878906 0.00390625 0 0 0 0.11213
0.882813 0.00390625 0 0 0 0.107688
0.886719 0.00390625 0 0 0 0.103219
0.890625 0.00390625 0 0 0 0.0987249
0.894531 0.00390625 0 0 0 0.0942075
0.898438 0.00390625 0 0 0 0.0896687
0.902344 0.00390625 0 0 0 0.0851109
0.90625 0.00390625 0 0 0 0.0805369
0.910156 0.00390625 0 0 0 0.0759501
0.914063 0.00390625 0 0 0 0.0713544
0.917969 0.00390625 0 0 0 0.0667545
0.921875 0.00390625 0 0 0 0.0621564
0.925781 0.00390625 0 0 0 0.0575667
0.929688 0.00390625 0 0 0 0.0529939
0.933594 0.00390625 0 0 0 0.0484478
0.9375 0.00390625 0 0 0 0.0439402
0.941406 0.00390625 0 0 0 0.0394853
0.945313 0.00390625 0 0 0 0.0350999
0.949219 0.00390625 0 0 0 0.0308037
0.953125 0.00390625 0 0 0 0.0266202
0.957031 0.00390625 0 0 0 0.0225768
0.960938 0.00390625 0 0 0 0.0187054
0.964844 0.00390625 0 0 0 0.0150432
0.96875 0.00390625 0 0 0 0.0116327
0.972656 0.00390625 0 0 0 0.00852252
0.976563 0.00390625 0 0 0 0.0057672
0.980469 0.00390625 0 0 0 0.00342651
0.984375 0.00390625 0 0 0 0.00156327
0.988281 0.00390625 0 0 0 0.000237584
0.992188 0.00390625 0 0 0 -0.000506594
0.996094 0.00390625 0 0 0 -0.000672362
1 0.00390625 0 0 0 -0.000378586
0 0.0078125 0 0 -0.000378586 0
0.00390625 0.0078125 0 0 0 -0.000308026
0.0078125 0.0078125 5.77862e-07 -5.77753e-07 2.3501e-09 2.43526e-05
0.0117188 0.0078125 7.88568e-07 -2.29535e-07 4.51405e-09 0.000353965
0.015625 0.0078125 -1.2118e-07 5.25099e-07 4.14422e-09 0.000825506
0.0195313 0.0078125 -2.45908e-06 1.39856e-06 4.13232e-10 0.0015401
0.0234375 0.0078125 -6.28975e-06 2.25774e-06 -6.77987e-09 0.00254465
0.0273438 0.0078125 -1.1553e-05 3.04718e-06 -1.72225e-08 0.00384893
0.03125 0.0078125 -1.81298e-05 3.74757e-06 -3.05826e-08 0.00544127
0.0351563 0.0078125 -2.58775e-05 4.35603e-06 -4.64966e-08 0.00729896
0.0390625 0.0078125 -3.46494e-05 4.87699e-06 -6.46098e-08 0.00939448
0.0429688 0.0078125 -4.43042e-05 5.31797e-06 -8.45935e-08 0.011699
0.046875 0.0078125 -5.47112e-05 5.68753e-06 -1.06152e-07 0.0141846
0.0507813 0.0078125 -6.57523e-05 5.99433e-06 -1.29023e-07 0.0168249
0.0546875 0.0078125 -7.73226e-05 6.2466e-06 -1.52978e-07 0.0195962
0.0585938 0.0078125 -8.93302e-05 6.45193e-06 -1.7782e-07 0.0224769
0.0625 0.0078125 -0.000101695 6.61717e-06 -2.03379e-07 0.0254482
0.0664063 0.0078125 -0.000114349 6.74843e-06 -2.29513e-07 0.0284938
0.0703125 0.0078125 -0.000127233 6.85108e-06 -2.56098e-07 0.0315993
0.0742188 0.0078125 -0.000140298 6.92979e-06 -2.83034e-07 0.0347525
0.078125 0.0078125 -0.000153503 6.98861e-06 -3.10235e-07 0.0379431
0.0820313 0.0078125 -0.000166811 7.03099e-06 -3.37631e-07 0.0411624
0.0859375 0.0078125 -0.000180194 7.05987e-06 -3.65163e-07 0.0444029
0.0898438 0.0078125 -0.000193629 7.07772e-06 -3.92786e-07 0.0476586
0.09375 0.0078125 -0.000207096 7.08661e-06 -4.20458e-07 0.0509243
0.0976563 0.0078125 -0.000220578 7.08825e-06 -4.48151e-07 0.0541959
0.101563 0.0078125 -0.000234062 7.08407e-06 -4.75837e-07 0.0574697
0.105469 0.0078125 -0.000247539 7.07521e-06 -5.03497e-07 0.0607431
0.109375 0.0078125 -0.000260998 7.0626e-06 -5.31115e-07 0.0640137
0.113281 0.0078125 -0.000274434 7.04699e-06 -5.58678e-07 0.0672795
0.117188 0.0078125 -0.00028784 7.02898e-06 -5.86175e-07 0.0705391
0.121094 0.0078125 -0.000301213 7.00903e-06 -6.13598e-07 0.073791
0.125 0.0078125 -0.000314548 6.98749e-06 -6.4094e-07 0.0770344
0.128906 0.0078125 -0.000327842 6.96464e-06 -6.68195e-07 0.0802682
0.132813 0.0078125 -0.000341092 6.94069e-06 -6.95359e-07 0.0834918
0.136719 0.0078125 -0.000354297 6.91578e-06 -7.22428e-07 0.0867045
0.140625 0.0078125 -0.000367454 6.89002e-06 -7.49398e-07 0.0899058
0.144531 0.0078125 -0.000380562 6.8635e-06 -7.76267e-07 0.0930951
0.148438 0.0078125 -0.000393619 6.83625e-06 -8.0303e-07 0.0962721
0.152344 0.0078125 -0.000406623 6.8083e-06 -8.29687e-07 0.0994364
0.15625 0.0078125 -0.000419574 6.77968e-06 -8.56233e-07 0.102587
0.160156 0.0078125 -0.000432469 6.75039e-06 -8.82667e-07 0.105725
0.164063 0.0078125 -0.000445308 6.72042e-06 -9.08985e-07 0.108849
0.167969 0.0078125 -0.000458088 6.68978e-06 -9.35186e-07 0.111958
0.171875 0.0078125 -0.000470809 6.65844e-06 -9.61265e-07 0.115053
0.175781 0.0078125 -0.00048347 6.6264e-06 -9.87222e-07 0.118133
0.179688 0.0078125 -0.000496068 6.59364e-06 -1.01305e-06 0.121197
0.183594 0.0078125 -0.000508603 6.56016e-06 -1.03875e-06 0.124246
0.1875 0.0078125 -0.000521073 6.52594e-06 -1.06432e-06 0.127279
0.191406 0.0078125 -0.000533476 6.49096e-06 -1.08976e-06 0.130296
0.195313 0.0078125 -0.000545811 6.45523e-06 -1.11505e-06 0.133296
0.199219 0.0078125 -0.000558077 6.41872e-06 -1.14021e-06 0.136278
0.203125 0.0078125 -0.000570272 6.38143e-06 -1.16522e-06 0.139244
0.207031 0.0078125 -0.000582395 6.34336e-06 -1.19009e-06 0.142191
0.210938 0.0078125 -0.000594443 6.30449e-06 -1.21481e-06 0.14512
0.214844 0.0078125 -0.000606416 6.26482e-06 -1.23937e-06 0.148031
0.21875 0.0078125 -0.000618312 6.22435e-06 -1.26378e-06 0.150922
0.222656 0.0078125 -0.00063013 6.18306e-06 -1.28802e-06 0.153795
0.226563 0.0078125 -0.000641867 6.14096e-06 -1.31211e-06 0.156647
0.230469 0.0078125 -0.000653523 6.09804e-06 -1.33603e-06 0.159479
0.234375 0.0078125 -0.000665095 6.0543e-06 -1.35978e-06 0.162291
0.238281 0.0078125 -0.000676583 6.00974e-06 -1.38336e-06 0.165082
0.242188 0.0078125 -0.000687984 5.96435e-06 -1.40676e-06 0.167852
0.246094 0.0078125 -0.000699297 5.91814e-06 -1.42999e-06 0.1706
0.25 0.0078125 -0.000710521 5.87109e-06 -1.45303e-06 0.173326
0.253906 0.0078125 -0.000721653 5.82322e-06 -1.47589e-06 0.17603
0.257813 0.0078125 -0.000732693 5.77451e-06 -1.49856e-06 0.17871
0.261719 0.0078125 -0.000743638 5.72497e-06 -1.52104e-06 0.181368
0.265625 0.0078125 -0.000754488 5.67459e-06 -1.54332e-06 0.184002
0.269531 0.0078125 -0.00076524 5.62338e-06 -1.5654e-06 0.186612
0.273438 0.0078125 -0.000775892 5.57133e-06 -1.58729e-06 0.189197
0.277344 0.0078125 -0.000786444 5.51845e-06 -1.60897e-06 0.191758
0.28125 0.0078125 -0.000796894 5.46473e-06 -1.63044e-06 0.194294
0.285156 0.0078125 -0.00080724 5.41018e-06 -1.6517e-06 0.196804
0.289063 0.0078125 -0.00081748 5.35478e-06 -1.67275e-06 0.199288
0.292969 0.0078125 -0.000827614 5.29855e-06 -1.69358e-06 0.201746
0.296875 0.0078125 -0.000837638 5.24148e-06 -1.71419e-06 0.204178
0.300781 0.0078125 -0.000847553 5.18357e-06 -1.73457e-06 0.206582
0.304688 0.0078125 -0.000857355 5.12482e-06 -1.75473e-06 0.208959
0.308594 0.0078125 -0.000867044 5.06523e-06 -1.77465e-06 0.211307
0.3125 0.0078125 -0.000876618 5.00481e-06 -1.79435e-06 0.213628
0.316406 0.0078125 -0.000886075 4.94354e-06 -1.8138e-06 0.21592
0.320313 0.0078125 -0.000895415 4.88144e-06 -1.83302e-06 0.218183
0.324219 0.0078125 -0.000904634 4.81849e-06 -1.85199e-06 0.220417
0.328125 0.0078125 -0.000913732 4.75471e-06 -1.87071e-06 0.222621
0.332031 0.0078125 -0.000922707 4.69009e-06 -1.88918e-06 0.224795
0.335938 0.0078125 -0.000931557 4.62463e-06 -1.9074e-06 0.226938
0.339844 0.0078125 -0.000940282 4.55832e-06 -1.92536e-06 0.22905
0.34375 0.0078125 -0.000948878 4.49119e-06 -1.94307e-06 0.231131
0.347656 0.0078125 -0.000957345 4.42321e-06 -1.9605e-06 0.23318
0.351563 0.0078125 -0.000965682 4.35439e-06 -1.97768e-06 0.235198
0.355469 0.0078125 -0.000973885 4.28474e-06 -1.99458e-06 0.237182
0.359375 0.0078125 -0.000981955 4.21425e-06 -2.01121e-06 0.239134
0.363281 0.0078125 -0.000989889 4.14292e-06 -2.02756e-06 0.241053
0.367188 0.0078125 -0.000997686 4.07076e-06 -2.04363e-06 0.242938
0.371094 0.0078125 -0.00100534 3.99776e-06 -2.05942e-06 0.24479
0.375 0.0078125 -0.00101286 3.92393e-06 -2.07492e-06 0.246606
0.378906 0.0078125 -0.00102024 3.84926e-06 -2.09014e-06 0.248389
0.382813 0.0078125 -0.00102747 3.77376e-06 -2.10506e-06 0.250136
0.386719 0.0078125 -0.00103456 3.69743e-06 -2.11968e-06 0.251847
0.390625 0.0078125 -0.0010415 3.62027e-06 -2.134e-06 0.253523
0.394531 0.0078125 -0.00104829 3.54228e-06 -2.14803e-06 0.255163
0.398438 0.0078125 -0.00105493 3.46346e-06 -2.16174e-06 0.256766
0.402344 0.0078125 -0.00106142 3.38382e-06 -2.17515e-06 0.258332
0.40625 0.0078125 -0.00106776 3.30335e-06 -2.18824e-06 0.25986
0.410156 0.0078125 -0.00107394 3.22206e-06 -2.20102e-06 0.261352
0.414063 0.0078125 -0.00107997 3.13995e-06 -2.21348e-06 0.262804
0.417969 0.0078125 -0.00108584 3.05703e-06 -2.22562e-06 0.264219
0.421875 0.0078125 -0.00109155 2.97328e-06 -2.23743e-06 0.265595
0.425781 0.0078125 -0.00109711 2.88873e-06 -2.24892e-06 0.266931
0.429688 0.0078125 -0.00110249 2.80336e-06 -2.26007e-06 0.268228
0.433594 0.0078125 -0.00110772 2.71719e-06 -2.27089e-06 0.269486
0.4375 0.0078125 -0.00111278 2.63022e-06 -2.28137e-06 0.270702
0.441406 0.0078125 -0.00111767 2.54244e-06 -2.29151e-06 0.271879
0.445313 0.0078125 -0.0011224 2.45387e-06 -2.3013e-06 0.273014
0.449219 0.0078125 -0.00112695 2.3645e-06 -2.31075e-06 0.274108
0.453125 0.0078125 -0.00113134 2.27435e-06 -2.31985e-06 0.275161
0.457031 0.0078125 -0.00113555 2.18341e-06 -2.32859e-06 0.276171
0.460938 0.0078125 -0.00113959 2.09169e-06 -2.33698e-06 0.277139
0.464844 0.0078125 -0.00114345 1.9992e-06 -2.34501e-06 0.278065
0.46875 0.0078125 -0.00114714 1.90594e-06 -2.35268e-06 0.278947
0.472656 0.0078125 -0.00115065 1.81192e-06 -2.35998e-06 0.279786
0.476563 0.0078125 -0.00115398 1.71714e-06 -2.36691e-06 0.280581
0.480469 0.0078125 -0.00115712 1.62161e-06 -2.37347e-06 0.281332
0.484375 0.0078125 -0.00116009 1.52534e-06 -2.37966e-06 0.282039
0.488281 0.0078125 -0.00116287 1.42833e-06 -2.38547e-06 0.282701
0.492188 0.0078125 -0.00116546 1.33059e-06 -2.3909e-06 0.283319
0.496094 0.0078125 -0.00116787 1.23213e-06 -2.39594e-06 0.28389
0.5 0.0078125 -0.00117009 1.13295e-06 -2.4006e-06 0.284417
0.503906 0.0078125 -0.00117213 1.03307e-06 -2.40487e-06 0.284897
0.507813 0.0078125 -0.00117397 9.325e-07 -2.40875e-06 0.285331
0.511719 0.0078125 -0.00117562 8.31239e-07 -2.41224e-06 0.285718
0.515625 0.0078125 -0.00117707 7.29302e-07 -2.41533e-06 0.286059
0.519531 0.0078125 -0.00117833 6.26699e-07 -2.41802e-06 0.286352
0.523438 0.0078125 -0.0011794 5.2344e-07 -2.42031e-06 0.286598
0.527344 0.0078125 -0.00118027 4.19538e-07 -2.42219e-06 0.286796
0.53125 0.0078125 -0.00118094 3.15004e-07 -2.42367e-06 0.286946
0.535156 0.0078125 -0.00118142 2.0985e-07 -2.42474e-06 0.287048
0.539063 0.0078125 -0.00118169 1.04088e-07 -2.4254e-06 0.287102
0.542969 0.0078125 -0.00118176 -2.26666e-09 -2.42564e-06 0.287106
0.546875 0.0078125 -0.00118163 -1.09202e-07 -2.42546e-06 0.287062
0.550781 0.0078125 -0.00118129 -2.16703e-07 -2.42487e-06 0.286968
0.554688 0.0078125 -0.00118075 -3.24754e-07 -2.42386e-06 0.286825
0.558594 0.0078125 -0.00118001 -4.33341e-07 -2.42242e-06 0.286632
0.5625 0.0078125 -0.00117906 -5.42448e-07 -2.42056e-06 0.286389
0.566406 0.0078125 -0.0011779 -6.52057e-07 -2.41827e-06 0.286095
0.570313 0.0078125 -0.00117653 -7.62153e-07 -2.41555e-06 0.285752
0.574219 0.0078125 -0.00117496 -8.72716e-07 -2.4124e-06 0.285357
0.578125 0.0078125 -0.00117317 -9.8373e-07 -2.40882e-06 0.284912
0.582031 0.0078125 -0.00117117 -1.09517e-06 -2.4048e-06 0.284416
0.585938 0.0078125 -0.00116896 -1.20703e-06 -2.40035e-06 0.283868
0.589844 0.0078125 -0.00116654 -1.31928e-06 -2.39546e-06 0.28327
0.59375 0.0078125 -0.00116391 -1.4319e-06 -2.39013e-06 0.282619
0.597656 0.0078125 -0.00116106 -1.54487e-06 -2.38436e-06 0.281917
0.601563 0.0078125 -0.001158 -1.65816e-06 -2.37815e-06 0.281164
0.605469 0.0078125 -0.00115472 -1.77177e-06 -2.37149e-06 0.280358
0.609375 0.0078125 -0.00115123 -1.88565e-06 -2.36439e-06 0.2795
0.613281 0.0078125 -0.00114752 -1.9998e-06 -2.35685e-06 0.27859
0.617188 0.0078125 -0.00114359 -2.11417e-06 -2.34886e-06 0.277628
0.621094 0.0078125 -0.00113945 -2.22876e-06 -2.34042e-06 0.276613
0.625 0.0078125 -0.00113509 -2.34353e-06 -2.33153e-06 0.275546
0.628906 0.0078125 -0.00113052 -2.45847e-06 -2.3222e-06 0.274427
0.632813 0.0078125 -0.00112572 -2.57353e-06 -2.31241e-06 0.273255
0.636719 0.0078125 -0.00112071 -2.68869e-06 -2.30218e-06 0.27203
0.640625 0.0078125 -0.00111548 -2.80394e-06 -2.29149e-06 0.270753
0.644531 0.0078125 -0.00111003 -2.91923e-06 -2.28036e-06 0.269423
0.648438 0.0078125 -0.00110437 -3.03454e-06 -2.26877e-06 0.26804
0.652344 0.0078125 -0.00109848 -3.14984e-06 -2.25673e-06 0.266605
0.65625 0.0078125 -0.00109238 -3.2651e-06 -2.24425e-06 0.265117
0.660156 0.0078125 -0.00108606 -3.38029e-06 -2.23131e-06 0.263577
0.664063 0.0078125 -0.00107952 -3.49537e-06 -2.21792e-06 0.261984
0.667969 0.0078125 -0.00107276 -3.61033e-06 -2.20409e-06 0.260338
0.671875 0.0078125 -0.00106579 -3.72511e-06 -2.1898e-06 0.25864
0.675781 0.0078125 -0.0010586 -3.8397e-06 -2.17507e-06 0.25689
0.679688 0.0078125 -0.00105119 -3.95405e-06 -2.15988e-06 0.255088
0.683594 0.0078125 -0.00104357 -4.06814e-06 -2.14426e-06 0.253233
0.6875 0.0078125 -0.00103573 -4.18193e-06 -2.12818e-06 0.251327
0.691406 0.0078125 -0.00102768 -4.29539e-06 -2.11167e-06 0.249369
0.695313 0.0078125 -0.00101941 -4.40848e-06 -2.09471e-06 0.247359
0.699219 0.0078125 -0.00101093 -4.52116e-06 -2.0773e-06 0.245298
0.703125 0.0078125 -0.00100224 -4.63341e-06 -2.05946e-06 0.243185
0.707031 0.0078125 -0.000993334 -4.74517e-06 -2.04118e-06 0.241022
0.710938 0.0078125 -0.000984218 -4.85643e-06 -2.02247e-06 0.238808
0.714844 0.0078125 -0.000974892 -4.96714e-06 -2.00332e-06 0.236543
0.71875 0.0078125 -0.000965358 -5.07726e-06 -1.98374e-06 0.234228
0.722656 0.0078125 -0.000955616 -5.18677e-06 -1.96373e-06 0.231863
0.726563 0.0078125 -0.000945667 -5.29561e-06 -1.94329e-06 0.229448
0.730469 0.0078125 -0.000935514 -5.40376e-06 -1.92243e-06 0.226984
0.734375 0.0078125 -0.000925156 -5.51117e-06 -1.90115e-06 0.224471
0.738281 0.0078125 -0.000914597 -5.61781e-06 -1.87945e-06 0.221909
0.742188 0.0078125 -0.000903836 -5.72365e-06 -1.85733e-06 0.219298
0.746094 0.0078125 -0.000892876 -5.82863e-06 -1.8348e-06 0.21664
0.75 0.0078125 -0.000881719 -5.93274e-06 -1.81186e-06 0.213934
0.753906 0.0078125 -0.000870366 -6.03592e-06 -1.78852e-06 0.211181
0.757813 0.0078125 -0.000858818 -6.13815e-06 -1.76477e-06 0.208381
0.761719 0.0078125 -0.000847078 -6.23938e-06 -1.74063e-06 0.205535
0.765625 0.0078125 -0.000835148 -6.33958e-06 -1.71609e-06 0.202643
0.769531 0.0078125 -0.00082303 -6.43872e-06 -1.69117e-06 0.199706
0.773438 0.0078125 -0.000810725 -6.53674e-06 -1.66585e-06 0.196724
0.777344 0.0078125 -0.000798236 -6.63363e-06 -1.64016e-06 0.193697
0.78125 0.0078125 -0.000785564 -6.72935e-06 -1.61409e-06 0.190627
0.785156 0.0078125 -0.000772713 -6.82386e-06 -1.58765e-06 0.187513
0.789063 0.0078125 -0.000759684 -6.91712e-06 -1.56084e-06 0.184357
0.792969 0.0078125 -0.000746481 -7.00911e-06 -1.53366e-06 0.181159
0.796875 0.0078125 -0.000733104 -7.09979e-06 -1.50613e-06 0.177918
0.800781 0.0078125 -0.000719557 -7.18914e-06 -1.47825e-06 0.174637
0.804688 0.0078125 -0.000705843 -7.27712e-06 -1.45002e-06 0.171316
0.808594 0.0078125 -0.000691963 -7.3637e-06 -1.42145e-06 0.167955
0.8125 0.0078125 -0.000677921 -7.44885e-06 -1.39254e-06 0.164555
0.816406 0.0078125 -0.00066372 -7.53256e-06 -1.3633e-06 0.161116
0.820313 0.0078125 -0.000649361 -7.6148e-06 -1.33374e-06 0.157639
0.824219 0.0078125 -0.000634849 -7.69553e-06 -1.30386e-06 0.154126
0.828125 0.0078125 -0.000620185 -7.77474e-06 -1.27367e-06 0.150576
0.832031 0.0078125 -0.000605373 -7.85241e-06 -1.24316e-06 0.14699
0.835938 0.0078125 -0.000590415 -7.92851e-06 -1.21236e-06 0.14337
0.839844 0.0078125 -0.000575315 -8.00302e-06 -1.18126e-06 0.139715
0.84375 0.0078125 -0.000560076 -8.07592e-06 -1.14988e-06 0.136027
0.847656 0.0078125 -0.0005447 -8.14718e-06 -1.11821e-06 0.132306
0.851563 0.0078125 -0.000529191 -8.21676e-06 -1.08626e-06 0.128553