Title=" Lid Driven Flow"
VARIABLES="X","Y","U","V","psi","xi"
ZONE T= "BOX", I= 257, J=257, F=POINT
0 0 0 0 -306.127 0
0.00390625 0 0 0 0 0
0.0078125 0 0 0 0 0
0.0117188 0 0 0 0 -416.843
0.015625 0 0 0 0 -326.388
0.0195313 0 0 0 0 -259.797
0.0234375 0 0 0 0 -212.821
0.0273438 0 0 0 0 -179.535
0.03125 0 0 0 0 -155.461
0.0351563 0 0 0 0 -137.583
0.0390625 0 0 0 0 -123.93
0.0429688 0 0 0 0 -113.221
0.046875 0 0 0 0 -104.61
0.0507813 0 0 0 0 -97.5337
0.0546875 0 0 0 0 -91.6067
0.0585938 0 0 0 0 -86.5605
0.0625 0 0 0 0 -82.2035
0.0664063 0 0 0 0 -78.3961
0.0703125 0 0 0 0 -75.0345
0.0742188 0 0 0 0 -72.0399
0.078125 0 0 0 0 -69.3515
0.0820313 0 0 0 0 -66.9214
0.0859375 0 0 0 0 -64.7117
0.0898438 0 0 0 0 -62.6916
0.09375 0 0 0 0 -60.8361
0.0976563 0 0 0 0 -59.1244
0.101563 0 0 0 0 -57.5394
0.105469 0 0 0 0 -56.0664
0.109375 0 0 0 0 -54.6932
0.113281 0 0 0 0 -53.4092
0.117188 0 0 0 0 -52.2054
0.121094 0 0 0 0 -51.074
0.125 0 0 0 0 -50.0082
0.128906 0 0 0 0 -49.002
0.132813 0 0 0 0 -48.0502
0.136719 0 0 0 0 -47.1482
0.140625 0 0 0 0 -46.2919
0.144531 0 0 0 0 -45.4777
0.148438 0 0 0 0 -44.7022
0.152344 0 0 0 0 -43.9626
0.15625 0 0 0 0 -43.2562
0.160156 0 0 0 0 -42.5807
0.164063 0 0 0 0 -41.9339
0.167969 0 0 0 0 -41.3139
0.171875 0 0 0 0 -40.719
0.175781 0 0 0 0 -40.1474
0.179688 0 0 0 0 -39.5978
0.183594 0 0 0 0 -39.0688
0.1875 0 0 0 0 -38.5592
0.191406 0 0 0 0 -38.0677
0.195313 0 0 0 0 -37.5935
0.199219 0 0 0 0 -37.1354
0.203125 0 0 0 0 -36.6927
0.207031 0 0 0 0 -36.2644
0.210938 0 0 0 0 -35.8499
0.214844 0 0 0 0 -35.4483
0.21875 0 0 0 0 -35.0591
0.222656 0 0 0 0 -34.6817
0.226563 0 0 0 0 -34.3153
0.230469 0 0 0 0 -33.9596
0.234375 0 0 0 0 -33.614
0.238281 0 0 0 0 -33.278
0.242188 0 0 0 0 -32.9512
0.246094 0 0 0 0 -32.6331
0.25 0 0 0 0 -32.3235
0.253906 0 0 0 0 -32.0218
0.257813 0 0 0 0 -31.7279
0.261719 0 0 0 0 -31.4412
0.265625 0 0 0 0 -31.1617
0.269531 0 0 0 0 -30.8888
0.273438 0 0 0 0 -30.6224
0.277344 0 0 0 0 -30.3622
0.28125 0 0 0 0 -30.108
0.285156 0 0 0 0 -29.8595
0.289063 0 0 0 0 -29.6166
0.292969 0 0 0 0 -29.3789
0.296875 0 0 0 0 -29.1462
0.300781 0 0 0 0 -28.9185
0.304688 0 0 0 0 -28.6955
0.308594 0 0 0 0 -28.4771
0.3125 0 0 0 0 -28.263
0.316406 0 0 0 0 -28.0531
0.320313 0 0 0 0 -27.8473
0.324219 0 0 0 0 -27.6454
0.328125 0 0 0 0 -27.4473
0.332031 0 0 0 0 -27.2529
0.335938 0 0 0 0 -27.0619
0.339844 0 0 0 0 -26.8743
0.34375 0 0 0 0 -26.69
0.347656 0 0 0 0 -26.5089
0.351563 0 0 0 0 -26.3307
0.355469 0 0 0 0 -26.1556
0.359375 0 0 0 0 -25.9832
0.363281 0 0 0 0 -25.8136
0.367188 0 0 0 0 -25.6466
0.371094 0 0 0 0 -25.4821
0.375 0 0 0 0 -25.3201
0.378906 0 0 0 0 -25.1605
0.382813 0 0 0 0 -25.0031
0.386719 0 0 0 0 -24.8479
0.390625 0 0 0 0 -24.6947
0.394531 0 0 0 0 -24.5436
0.398438 0 0 0 0 -24.3945
0.402344 0 0 0 0 -24.2472
0.40625 0 0 0 0 -24.1016
0.410156 0 0 0 0 -23.9578
0.414063 0 0 0 0 -23.8156
0.417969 0 0 0 0 -23.675
0.421875 0 0 0 0 -23.5358
0.425781 0 0 0 0 -23.398
0.429688 0 0 0 0 -23.2616
0.433594 0 0 0 0 -23.1265
0.4375 0 0 0 0 -22.9925
0.441406 0 0 0 0 -22.8597
0.445313 0 0 0 0 -22.7279
0.449219 0 0 0 0 -22.5971
0.453125 0 0 0 0 -22.4672
0.457031 0 0 0 0 -22.3382
0.460938 0 0 0 0 -22.21
0.464844 0 0 0 0 -22.0824
0.46875 0 0 0 0 -21.9555
0.472656 0 0 0 0 -21.8292
0.476563 0 0 0 0 -21.7034
0.480469 0 0 0 0 -21.5781
0.484375 0 0 0 0 -21.4531
0.488281 0 0 0 0 -21.3285
0.492188 0 0 0 0 -21.2041
0.496094 0 0 0 0 -21.0798
0.5 0 0 0 0 -20.9557
0.503906 0 0 0 0 -20.8317
0.507813 0 0 0 0 -20.7077
0.511719 0 0 0 0 -20.5836
0.515625 0 0 0 0 -20.4594
0.519531 0 0 0 0 -20.3351
0.523438 0 0 0 0 -20.2105
0.527344 0 0 0 0 -20.0856
0.53125 0 0 0 0 -19.9605
0.535156 0 0 0 0 -19.835
0.539063 0 0 0 0 -19.7091
0.542969 0 0 0 0 -19.5828
0.546875 0 0 0 0 -19.456
0.550781 0 0 0 0 -19.3287
0.554688 0 0 0 0 -19.2009
0.558594 0 0 0 0 -19.0726
0.5625 0 0 0 0 -18.9438
0.566406 0 0 0 0 -18.8144
0.570313 0 0 0 0 -18.6846
0.574219 0 0 0 0 -18.5542
0.578125 0 0 0 0 -18.4234
0.582031 0 0 0 0 -18.2921
0.585938 0 0 0 0 -18.1604
0.589844 0 0 0 0 -18.0283
0.59375 0 0 0 0 -17.896
0.597656 0 0 0 0 -17.7634
0.601563 0 0 0 0 -17.6307
0.605469 0 0 0 0 -17.498
0.609375 0 0 0 0 -17.3653
0.613281 0 0 0 0 -17.2329
0.617188 0 0 0 0 -17.1007
0.621094 0 0 0 0 -16.969
0.625 0 0 0 0 -16.8379
0.628906 0 0 0 0 -16.7076
0.632813 0 0 0 0 -16.5782
0.636719 0 0 0 0 -16.45
0.640625 0 0 0 0 -16.3231
0.644531 0 0 0 0 -16.1978
0.648438 0 0 0 0 -16.0743
0.652344 0 0 0 0 -15.9528
0.65625 0 0 0 0 -15.8335
0.660156 0 0 0 0 -15.7167
0.664063 0 0 0 0 -15.6027
0.667969 0 0 0 0 -15.4917
0.671875 0 0 0 0 -15.384
0.675781 0 0 0 0 -15.2798
0.679688 0 0 0 0 -15.1795
0.683594 0 0 0 0 -15.0832
0.6875 0 0 0 0 -14.9914
0.691406 0 0 0 0 -14.9041
0.695313 0 0 0 0 -14.8218
0.699219 0 0 0 0 -14.7446
0.703125 0 0 0 0 -14.673
0.707031 0 0 0 0 -14.607
0.710938 0 0 0 0 -14.5469
0.714844 0 0 0 0 -14.493
0.71875 0 0 0 0 -14.4456
0.722656 0 0 0 0 -14.4048
0.726563 0 0 0 0 -14.3709
0.730469 0 0 0 0 -14.344
0.734375 0 0 0 0 -14.3244
0.738281 0 0 0 0 -14.3122
0.742188 0 0 0 0 -14.3077
0.746094 0 0 0 0 -14.3109
0.75 0 0 0 0 -14.322
0.753906 0 0 0 0 -14.3412
0.757813 0 0 0 0 -14.3686
0.761719 0 0 0 0 -14.4044
0.765625 0 0 0 0 -14.4486
0.769531 0 0 0 0 -14.5015
0.773438 0 0 0 0 -14.5631
0.777344 0 0 0 0 -14.6337
0.78125 0 0 0 0 -14.7133
0.785156 0 0 0 0 -14.8022
0.789063 0 0 0 0 -14.9005
0.792969 0 0 0 0 -15.0085
0.796875 0 0 0 0 -15.1264
0.800781 0 0 0 0 -15.2546
0.804688 0 0 0 0 -15.3933
0.808594 0 0 0 0 -15.543
0.8125 0 0 0 0 -15.7041
0.816406 0 0 0 0 -15.8772
0.820313 0 0 0 0 -16.0627
0.824219 0 0 0 0 -16.2615
0.828125 0 0 0 0 -16.4743
0.832031 0 0 0 0 -16.7019
0.835938 0 0 0 0 -16.9455
0.839844 0 0 0 0 -17.2061
0.84375 0 0 0 0 -17.4849
0.847656 0 0 0 0 -17.7836
0.851563 0 0 0 0 -18.1035
0.855469 0 0 0 0 -18.4466
0.859375 0 0 0 0 -18.8147
0.863281 0 0 0 0 -19.2101
0.867188 0 0 0 0 -19.6351
0.871094 0 0 0 0 -20.0925
0.875 0 0 0 0 -20.585
0.878906 0 0 0 0 -21.1159
0.882813 0 0 0 0 -21.6886
0.886719 0 0 0 0 -22.3069
0.890625 0 0 0 0 -22.9748
0.894531 0 0 0 0 -23.6968
0.898438 0 0 0 0 -24.4776
0.902344 0 0 0 0 -25.3227
0.90625 0 0 0 0 -26.2375
0.910156 0 0 0 0 -27.2285
0.914063 0 0 0 0 -28.3023
0.917969 0 0 0 0 -29.4666
0.921875 0 0 0 0 -30.7297
0.925781 0 0 0 0 -32.101
0.929688 0 0 0 0 -33.5912
0.933594 0 0 0 0 -35.2128
0.9375 0 0 0 0 -36.9804
0.941406 0 0 0 0 -38.9114
0.945313 0 0 0 0 -41.0273
0.949219 0 0 0 0 -43.355
0.953125 0 0 0 0 -45.9289
0.957031 0 0 0 0 -48.7939
0.960938 0 0 0 0 -52.0106
0.964844 0 0 0 0 -55.6615
0.96875 0 0 0 0 -59.8632
0.972656 0 0 0 0 -64.7841
0.976563 0 0 0 0 -70.6764
0.980469 0 0 0 0 -77.9326
0.984375 0 0 0 0 -87.1961
0.988281 0 0 0 0 -99.5989
0.992188 0 0 0 0 -117.331
0.996094 0 0 0 0 -145.205
1 0 0 0 0 -195.759
0 0.00390625 0 0 0 0
0.00390625 0.00390625 0 0 0 0
0.0078125 0.00390625 0 0 0 -0.00028641
0.0117188 0.00390625 0 0 0 -0.000771207
0.015625 0.00390625 0 0 0 -0.00114959
0.0195313 0.00390625 0 0 0 -0.00125251
0.0234375 0.00390625 0 0 0 -0.00100089
0.0273438 0.00390625 0 0 0 -0.00036625
0.03125 0.00390625 0 0 0 0.000652723
0.0351563 0.00390625 0 0 0 0.00204292
0.0390625 0.00390625 0 0 0 0.00378376
0.0429688 0.00390625 0 0 0 0.00585106
0.046875 0.00390625 0 0 0 0.00821921
0.0507813 0.00390625 0 0 0 0.0108624
0.0546875 0.00390625 0 0 0 0.0137556
0.0585938 0.00390625 0 0 0 0.0168746
0.0625 0.00390625 0 0 0 0.0201967
0.0664063 0.00390625 0 0 0 0.0237003
0.0703125 0.00390625 0 0 0 0.0273658
0.0742188 0.00390625 0 0 0 0.0311745
0.078125 0.00390625 0 0 0 0.0351096
0.0820313 0.00390625 0 0 0 0.0391556
0.0859375 0.00390625 0 0 0 0.0432984
0.0898438 0.00390625 0 0 0 0.0475249
0.09375 0.00390625 0 0 0 0.0518237
0.0976563 0.00390625 0 0 0 0.0561842
0.101563 0.00390625 0 0 0 0.060597
0.105469 0.00390625 0 0 0 0.0650535
0.109375 0.00390625 0 0 0 0.0695464
0.113281 0.00390625 0 0 0 0.0740689
0.117188 0.00390625 0 0 0 0.078615
0.121094 0.00390625 0 0 0 0.0831795
0.125 0.00390625 0 0 0 0.0877578
0.128906 0.00390625 0 0 0 0.0923459
0.132813 0.00390625 0 0 0 0.0969403
0.136719 0.00390625 0 0 0 0.101538
0.140625 0.00390625 0 0 0 0.106136
0.144531 0.00390625 0 0 0 0.110732
0.148438 0.00390625 0 0 0 0.115325
0.152344 0.00390625 0 0 0 0.119912
0.15625 0.00390625 0 0 0 0.124492
0.160156 0.00390625 0 0 0 0.129063
0.164063 0.00390625 0 0 0 0.133626
0.167969 0.00390625 0 0 0 0.138178
0.171875 0.00390625 0 0 0 0.142719
0.175781 0.00390625 0 0 0 0.147248
0.179688 0.00390625 0 0 0 0.151764
0.183594 0.00390625 0 0 0 0.156268
0.1875 0.00390625 0 0 0 0.160757
0.191406 0.00390625 0 0 0 0.165233
0.195313 0.00390625 0 0 0 0.169695
0.199219 0.00390625 0 0 0 0.174141
0.203125 0.00390625 0 0 0 0.178572
0.207031 0.00390625 0 0 0 0.182988
0.210938 0.00390625 0 0 0 0.187387
0.214844 0.00390625 0 0 0 0.19177
0.21875 0.00390625 0 0 0 0.196136
0.222656 0.00390625 0 0 0 0.200484
0.226563 0.00390625 0 0 0 0.204815
0.230469 0.00390625 0 0 0 0.209128
0.234375 0.00390625 0 0 0 0.213422
0.238281 0.00390625 0 0 0 0.217697
0.242188 0.00390625 0 0 0 0.221952
0.246094 0.00390625 0 0 0 0.226188
0.25 0.00390625 0 0 0 0.230402
0.253906 0.00390625 0 0 0 0.234596
0.257813 0.00390625 0 0 0 0.238768
0.261719 0.00390625 0 0 0 0.242918
0.265625 0.00390625 0 0 0 0.247044
0.269531 0.00390625 0 0 0 0.251148
0.273438 0.00390625 0 0 0 0.255227
0.277344 0.00390625 0 0 0 0.259281
0.28125 0.00390625 0 0 0 0.26331
0.285156 0.00390625 0 0 0 0.267313
0.289063 0.00390625 0 0 0 0.271289
0.292969 0.00390625 0 0 0 0.275238
0.296875 0.00390625 0 0 0 0.279158
0.300781 0.00390625 0 0 0 0.283049
0.304688 0.00390625 0 0 0 0.28691
0.308594 0.00390625 0 0 0 0.290741
0.3125 0.00390625 0 0 0 0.29454
0.316406 0.00390625 0 0 0 0.298307
0.320313 0.00390625 0 0 0 0.302041
0.324219 0.00390625 0 0 0 0.305741
0.328125 0.00390625 0 0 0 0.309406
0.332031 0.00390625 0 0 0 0.313035
0.335938 0.00390625 0 0 0 0.316628
0.339844 0.00390625 0 0 0 0.320183
0.34375 0.00390625 0 0 0 0.3237
0.347656 0.00390625 0 0 0 0.327177
0.351563 0.00390625 0 0 0 0.330614
0.355469 0.00390625 0 0 0 0.33401
0.359375 0.00390625 0 0 0 0.337363
0.363281 0.00390625 0 0 0 0.340673
0.367188 0.00390625 0 0 0 0.343939
0.371094 0.00390625 0 0 0 0.347159
0.375 0.00390625 0 0 0 0.350333
0.378906 0.00390625 0 0 0 0.35346
0.382813 0.00390625 0 0 0 0.356538
0.386719 0.00390625 0 0 0 0.359567
0.390625 0.00390625 0 0 0 0.362544
0.394531 0.00390625 0 0 0 0.365471
0.398438 0.00390625 0 0 0 0.368344
0.402344 0.00390625 0 0 0 0.371163
0.40625 0.00390625 0 0 0 0.373928
0.410156 0.00390625 0 0 0 0.376636
0.414063 0.00390625 0 0 0 0.379287
0.417969 0.00390625 0 0 0 0.381879
0.421875 0.00390625 0 0 0 0.384412
0.425781 0.00390625 0 0 0 0.386884
0.429688 0.00390625 0 0 0 0.389294
0.433594 0.00390625 0 0 0 0.391642
0.4375 0.00390625 0 0 0 0.393925
0.441406 0.00390625 0 0 0 0.396142
0.445313 0.00390625 0 0 0 0.398294
0.449219 0.00390625 0 0 0 0.400377
0.453125 0.00390625 0 0 0 0.402392
0.457031 0.00390625 0 0 0 0.404337
0.460938 0.00390625 0 0 0 0.406211
0.464844 0.00390625 0 0 0 0.408012
0.46875 0.00390625 0 0 0 0.40974
0.472656 0.00390625 0 0 0 0.411394
0.476563 0.00390625 0 0 0 0.412972
0.480469 0.00390625 0 0 0 0.414473
0.484375 0.00390625 0 0 0 0.415897
0.488281 0.00390625 0 0 0 0.417241
0.492188 0.00390625 0 0 0 0.418505
0.496094 0.00390625 0 0 0 0.419688
0.5 0.00390625 0 0 0 0.420789
0.503906 0.00390625 0 0 0 0.421807
0.507813 0.00390625 0 0 0 0.422741
0.511719 0.00390625 0 0 0 0.423589
0.515625 0.00390625 0 0 0 0.424351
0.519531 0.00390625 0 0 0 0.425026
0.523438 0.00390625 0 0 0 0.425612
0.527344 0.00390625 0 0 0 0.42611
0.53125 0.00390625 0 0 0 0.426517
0.535156 0.00390625 0 0 0 0.426834
0.539063 0.00390625 0 0 0 0.427059
0.542969 0.00390625 0 0 0 0.427192
0.546875 0.00390625 0 0 0 0.427231
0.550781 0.00390625 0 0 0 0.427176
0.554688 0.00390625 0 0 0 0.427026
0.558594 0.00390625 0 0 0 0.426781
0.5625 0.00390625 0 0 0 0.42644
0.566406 0.00390625 0 0 0 0.426002
0.570313 0.00390625 0 0 0 0.425467
0.574219 0.00390625 0 0 0 0.424833
0.578125 0.00390625 0 0 0 0.424102
0.582031 0.00390625 0 0 0 0.423272
0.585938 0.00390625 0 0 0 0.422342
0.589844 0.00390625 0 0 0 0.421313
0.59375 0.00390625 0 0 0 0.420183
0.597656 0.00390625 0 0 0 0.418954
0.601563 0.00390625 0 0 0 0.417624
0.605469 0.00390625 0 0 0 0.416194
0.609375 0.00390625 0 0 0 0.414662
0.613281 0.00390625 0 0 0 0.41303
0.617188 0.00390625 0 0 0 0.411297
0.621094 0.00390625 0 0 0 0.409462
0.625 0.00390625 0 0 0 0.407527
0.628906 0.00390625 0 0 0 0.405491
0.632813 0.00390625 0 0 0 0.403355
0.636719 0.00390625 0 0 0 0.401118
0.640625 0.00390625 0 0 0 0.39878
0.644531 0.00390625 0 0 0 0.396343
0.648438 0.00390625 0 0 0 0.393807
0.652344 0.00390625 0 0 0 0.391171
0.65625 0.00390625 0 0 0 0.388437
0.660156 0.00390625 0 0 0 0.385604
0.664063 0.00390625 0 0 0 0.382674
0.667969 0.00390625 0 0 0 0.379647
0.671875 0.00390625 0 0 0 0.376524
0.675781 0.00390625 0 0 0 0.373306
0.679688 0.00390625 0 0 0 0.369993
0.683594 0.00390625 0 0 0 0.366586
0.6875 0.00390625 0 0 0 0.363086
0.691406 0.00390625 0 0 0 0.359494
0.695313 0.00390625 0 0 0 0.355811
0.699219 0.00390625 0 0 0 0.352038
0.703125 0.00390625 0 0 0 0.348176
0.707031 0.00390625 0 0 0 0.344226
0.710938 0.00390625 0 0 0 0.340189
0.714844 0.00390625 0 0 0 0.336068
0.71875 0.00390625 0 0 0 0.331862
0.722656 0.00390625 0 0 0 0.327573
0.726563 0.00390625 0 0 0 0.323202
0.730469 0.00390625 0 0 0 0.318752
0.734375 0.00390625 0 0 0 0.314222
0.738281 0.00390625 0 0 0 0.309616
0.742188 0.00390625 0 0 0 0.304933
0.746094 0.00390625 0 0 0 0.300177
0.75 0.00390625 0 0 0 0.295347
0.753906 0.00390625 0 0 0 0.290447
0.757813 0.00390625 0 0 0 0.285477
0.761719 0.00390625 0 0 0 0.280439
0.765625 0.00390625 0 0 0 0.275335
0.769531 0.00390625 0 0 0 0.270166
0.773438 0.00390625 0 0 0 0.264935
0.777344 0.00390625 0 0 0 0.259643
0.78125 0.00390625 0 0 0 0.254292
0.785156 0.00390625 0 0 0 0.248883
0.789063 0.00390625 0 0 0 0.243419
0.792969 0.00390625 0 0 0 0.237901
0.796875 0.00390625 0 0 0 0.232332
0.800781 0.00390625 0 0 0 0.226714
0.804688 0.00390625 0 0 0 0.221048
0.808594 0.00390625 0 0 0 0.215336
0.8125 0.00390625 0 0 0 0.209582
0.816406 0.00390625 0 0 0 0.203786
0.820313 0.00390625 0 0 0 0.197952
0.824219 0.00390625 0 0 0 0.192082
0.828125 0.00390625 0 0 0 0.186179
0.832031 0.00390625 0 0 0 0.180244
0.835938 0.00390625 0 0 0 0.174282
0.839844 0.00390625 0 0 0 0.168295
0.84375 0.00390625 0 0 0 0.162286
0.847656 0.00390625 0 0 0 0.156258
0.851563 0.00390625 0 0 0 0.150216
0.855469 0.00390625 0 0 0 0.144162
0.859375 0.00390625 0 0 0 0.138102
0.863281 0.00390625 0 0 0 0.13204
0.867188 0.00390625 0 0 0 0.125981
0.871094 0.00390625 0 0 0 0.119929
0.875 0.00390625 0 0 0 0.113891
0.878906 0.00390625 0 0 0 0.107874
0.882813 0.00390625 0 0 0 0.101882
0.886719 0.00390625 0 0 0 0.0959256
0.890625 0.00390625 0 0 0 0.0900109
0.894531 0.00390625 0 0 0 0.0841471
0.898438 0.00390625 0 0 0 0.0783436
0.902344 0.00390625 0 0 0 0.0726109
0.90625 0.00390625 0 0 0 0.0669601
0.910156 0.00390625 0 0 0 0.0614034
0.914063 0.00390625 0 0 0 0.0559537
0.917969 0.00390625 0 0 0 0.0506254
0.921875 0.00390625 0 0 0 0.0454338
0.925781 0.00390625 0 0 0 0.0403951
0.929688 0.00390625 0 0 0 0.0355272
0.933594 0.00390625 0 0 0 0.0308487
0.9375 0.00390625 0 0 0 0.0263799
0.941406 0.00390625 0 0 0 0.0221418
0.945313 0.00390625 0 0 0 0.0181571
0.949219 0.00390625 0 0 0 0.0144491
0.953125 0.00390625 0 0 0 0.0110423
0.957031 0.00390625 0 0 0 0.0079618
0.960938 0.00390625 0 0 0 0.00523285
0.964844 0.00390625 0 0 0 0.00288049
0.96875 0.00390625 0 0 0 0.000928474
0.972656 0.00390625 0 0 0 -0.000602039
0.976563 0.00390625 0 0 0 -0.0016947
0.980469 0.00390625 0 0 0 -0.00234138
0.984375 0.00390625 0 0 0 -0.00254792
0.988281 0.00390625 0 0 0 -0.00234361
0.992188 0.00390625 0 0 0 -0.00179748
0.996094 0.00390625 0 0 0 -0.00104519
1 0.00390625 0 0 0 -0.000326441
0 0.0078125 0 0 -0.000326441 0
0.00390625 0.0078125 0 0 0 -0.00028641
0.0078125 0.0078125 7.53441e-07 -7.53132e-07 2.18515e-09 -0.000198545
0.0117188 0.0078125 1.82691e-06 -8.4295e-07 5.88389e-09 -0.000110959
0.015625 0.0078125 2.42957e-06 -4.70013e-07 8.77079e-09 4.34023e-05
0.0195313 0.0078125 2.09037e-06 1.45227e-07 9.55601e-09 0.000359526
0.0234375 0.0078125 5.58616e-07 8.65504e-07 7.63638e-09 0.000906422
0.0273438 0.0078125 -2.27619e-06 1.61488e-06 2.79448e-09 0.00172386
0.03125 0.0078125 -6.43874e-06 2.35273e-06 -4.97966e-09 0.00282956
0.0351563 0.0078125 -1.19024e-05 3.05768e-06 -1.5586e-08 0.00422648
0.0390625 0.0078125 -1.86106e-05 3.71892e-06 -2.88676e-08 0.00590813
0.0429688 0.0078125 -2.64899e-05 4.33151e-06 -4.46399e-08 0.00786222
0.046875 0.0078125 -3.54584e-05 4.89395e-06 -6.27075e-08 0.010073
0.0507813 0.0078125 -4.54307e-05 5.40666e-06 -8.2874e-08 0.0125231
0.0546875 0.0078125 -5.63217e-05 5.87127e-06 -1.04947e-07 0.015194
0.0585938 0.0078125 -6.80478e-05 6.29006e-06 -1.28744e-07 0.0180673
0.0625 0.0078125 -8.05292e-05 6.66568e-06 -1.54089e-07 0.0211251
0.0664063 0.0078125 -9.36899e-05 7.00098e-06 -1.8082e-07 0.0243497
0.0703125 0.0078125 -0.000107459 7.29887e-06 -2.08785e-07 0.0277247
0.0742188 0.0078125 -0.000121769 7.56224e-06 -2.37844e-07 0.0312343
0.078125 0.0078125 -0.000136559 7.79391e-06 -2.67867e-07 0.034864
0.0820313 0.0078125 -0.000151772 7.99659e-06 -2.98736e-07 0.0386
0.0859375 0.0078125 -0.000167356 8.17289e-06 -3.30343e-07 0.0424298
0.0898438 0.0078125 -0.000183263 8.32525e-06 -3.62589e-07 0.0463418
0.09375 0.0078125 -0.00019945 8.45597e-06 -3.95387e-07 0.0503254
0.0976563 0.0078125 -0.000215877 8.56723e-06 -4.28655e-07 0.0543709
0.101563 0.0078125 -0.00023251 8.66102e-06 -4.62322e-07 0.0584697
0.105469 0.0078125 -0.000249315 8.73919e-06 -4.96323e-07 0.0626137
0.109375 0.0078125 -0.000266265 8.80346e-06 -5.30602e-07 0.0667959
0.113281 0.0078125 -0.000283334 8.8554e-06 -5.65106e-07 0.0710098
0.117188 0.0078125 -0.0003005 8.89642e-06 -5.9979e-07 0.0752496
0.121094 0.0078125 -0.000317741 8.92783e-06 -6.34616e-07 0.0795104
0.125 0.0078125 -0.000335041 8.95079e-06 -6.69546e-07 0.0837875
0.128906 0.0078125 -0.000352384 8.96637e-06 -7.04551e-07 0.088077
0.132813 0.0078125 -0.000369755 8.97551e-06 -7.39604e-07 0.0923753
0.136719 0.0078125 -0.000387143 8.97904e-06 -7.74681e-07 0.0966792
0.140625 0.0078125 -0.000404538 8.97772e-06 -8.09762e-07 0.100986
0.144531 0.0078125 -0.00042193 8.9722e-06 -8.44829e-07 0.105294
0.148438 0.0078125 -0.000439312 8.96305e-06 -8.79867e-07 0.109599
0.152344 0.0078125 -0.000456675 8.95077e-06 -9.14863e-07 0.113902
0.15625 0.0078125 -0.000474015 8.9358e-06 -9.49806e-07 0.118199
0.160156 0.0078125 -0.000491327 8.91852e-06 -9.84686e-07 0.12249
0.164063 0.0078125 -0.000508605 8.89923e-06 -1.01949e-06 0.126774
0.167969 0.0078125 -0.000525846 8.8782e-06 -1.05422e-06 0.131049
0.171875 0.0078125 -0.000543046 8.85566e-06 -1.08887e-06 0.135314
0.175781 0.0078125 -0.000560202 8.8318e-06 -1.12342e-06 0.139569
0.179688 0.0078125 -0.000577312 8.80676e-06 -1.15788e-06 0.143812
0.183594 0.0078125 -0.000594374 8.78066e-06 -1.19224e-06 0.148044
0.1875 0.0078125 -0.000611385 8.75361e-06 -1.2265e-06 0.152263
0.191406 0.0078125 -0.000628342 8.72566e-06 -1.26065e-06 0.15647
0.195313 0.0078125 -0.000645246 8.69687e-06 -1.29468e-06 0.160663
0.199219 0.0078125 -0.000662092 8.66729e-06 -1.32861e-06 0.164841
0.203125 0.0078125 -0.000678881 8.63692e-06 -1.36242e-06 0.169006
0.207031 0.0078125 -0.00069561 8.60579e-06 -1.3961e-06 0.173155
0.210938 0.0078125 -0.000712277 8.57388e-06 -1.42967e-06 0.17729
0.214844 0.0078125 -0.000728882 8.5412e-06 -1.46311e-06 0.181408
0.21875 0.0078125 -0.000745422 8.50772e-06 -1.49642e-06 0.185511
0.222656 0.0078125 -0.000761896 8.47343e-06 -1.52959e-06 0.189596
0.226563 0.0078125 -0.000778302 8.4383e-06 -1.56264e-06 0.193665
0.230469 0.0078125 -0.000794639 8.4023e-06 -1.59554e-06 0.197716
0.234375 0.0078125 -0.000810904 8.36541e-06 -1.6283e-06 0.20175
0.238281 0.0078125 -0.000827096 8.32759e-06 -1.66092e-06 0.205765
0.242188 0.0078125 -0.000843213 8.2888e-06 -1.69339e-06 0.209761
0.246094 0.0078125 -0.000859253 8.24901e-06 -1.7257e-06 0.213738
0.25 0.0078125 -0.000875214 8.20819e-06 -1.75786e-06 0.217695
0.253906 0.0078125 -0.000891095 8.16629e-06 -1.78985e-06 0.221632
0.257813 0.0078125 -0.000906892 8.12328e-06 -1.82168e-06 0.225548
0.261719 0.0078125 -0.000922603 8.07913e-06 -1.85334e-06 0.229442
0.265625 0.0078125 -0.000938227 8.03379e-06 -1.88483e-06 0.233314
0.269531 0.0078125 -0.000953761 7.98724e-06 -1.91613e-06 0.237164
0.273438 0.0078125 -0.000969203 7.93943e-06 -1.94725e-06 0.240991
0.277344 0.0078125 -0.00098455 7.89032e-06 -1.97819e-06 0.244793
0.28125 0.0078125 -0.000999799 7.8399e-06 -2.00893e-06 0.248572
0.285156 0.0078125 -0.00101495 7.78811e-06 -2.03947e-06 0.252325
0.289063 0.0078125 -0.00103 7.73493e-06 -2.0698e-06 0.256053
0.292969 0.0078125 -0.00104494 7.68031e-06 -2.09993e-06 0.259754
0.296875 0.0078125 -0.00105977 7.62424e-06 -2.12983e-06 0.263428
0.300781 0.0078125 -0.00107449 7.56667e-06 -2.15952e-06 0.267074
0.304688 0.0078125 -0.0010891 7.50757e-06 -2.18898e-06 0.270692
0.308594 0.0078125 -0.00110359 7.44691e-06 -2.21821e-06 0.274281
0.3125 0.0078125 -0.00111796 7.38465e-06 -2.24719e-06 0.277839
0.316406 0.0078125 -0.00113221 7.32078e-06 -2.27593e-06 0.281367
0.320313 0.0078125 -0.00114634 7.25525e-06 -2.30442e-06 0.284864
0.324219 0.0078125 -0.00116033 7.18803e-06 -2.33265e-06 0.288328
0.328125 0.0078125 -0.00117419 7.1191e-06 -2.36061e-06 0.291759
0.332031 0.0078125 -0.00118791 7.04843e-06 -2.3883e-06 0.295156
0.335938 0.0078125 -0.0012015 6.97598e-06 -2.41571e-06 0.298518
0.339844 0.0078125 -0.00121494 6.90173e-06 -2.44284e-06 0.301845
0.34375 0.0078125 -0.00122824 6.82564e-06 -2.46967e-06 0.305135
0.347656 0.0078125 -0.00124138 6.74771e-06 -2.4962e-06 0.308388
0.351563 0.0078125 -0.00125437 6.66788e-06 -2.52242e-06 0.311602
0.355469 0.0078125 -0.00126721 6.58615e-06 -2.54833e-06 0.314778
0.359375 0.0078125 -0.00127988 6.50247e-06 -2.57392e-06 0.317913
0.363281 0.0078125 -0.00129239 6.41684e-06 -2.59917e-06 0.321008
0.367188 0.0078125 -0.00130474 6.32922e-06 -2.62409e-06 0.324061
0.371094 0.0078125 -0.00131691 6.23959e-06 -2.64866e-06 0.327071
0.375 0.0078125 -0.0013289 6.14792e-06 -2.67287e-06 0.330037
0.378906 0.0078125 -0.00134071 6.05421e-06 -2.69673e-06 0.332959
0.382813 0.0078125 -0.00135234 5.95841e-06 -2.72021e-06 0.335835
0.386719 0.0078125 -0.00136379 5.86052e-06 -2.74332e-06 0.338664
0.390625 0.0078125 -0.00137504 5.76051e-06 -2.76603e-06 0.341445
0.394531 0.0078125 -0.00138609 5.65837e-06 -2.78836e-06 0.344178
0.398438 0.0078125 -0.00139694 5.55408e-06 -2.81028e-06 0.346862
0.402344 0.0078125 -0.00140759 5.44762e-06 -2.83179e-06 0.349495
0.40625 0.0078125 -0.00141804 5.33898e-06 -2.85288e-06 0.352076
0.410156 0.0078125 -0.00142826 5.22814e-06 -2.87354e-06 0.354604
0.414063 0.0078125 -0.00143828 5.1151e-06 -2.89377e-06 0.357079
0.417969 0.0078125 -0.00144807 4.99983e-06 -2.91355e-06 0.359499
0.421875 0.0078125 -0.00145763 4.88233e-06 -2.93287e-06 0.361863
0.425781 0.0078125 -0.00146697 4.7626e-06 -2.95173e-06 0.36417
0.429688 0.0078125 -0.00147607 4.64062e-06 -2.97012e-06 0.36642
0.433594 0.0078125 -0.00148494 4.51639e-06 -2.98803e-06 0.36861
0.4375 0.0078125 -0.00149356 4.38991e-06 -3.00545e-06 0.370741
0.441406 0.0078125 -0.00150193 4.26117e-06 -3.02237e-06 0.372811
0.445313 0.0078125 -0.00151006 4.13018e-06 -3.03878e-06 0.374818
0.449219 0.0078125 -0.00151792 3.99693e-06 -3.05468e-06 0.376762
0.453125 0.0078125 -0.00152553 3.86143e-06 -3.07005e-06 0.378643
0.457031 0.0078125 -0.00153288 3.72368e-06 -3.08489e-06 0.380457
0.460938 0.0078125 -0.00153995 3.5837e-06 -3.09918e-06 0.382206
0.464844 0.0078125 -0.00154676 3.44148e-06 -3.11293e-06 0.383887
0.46875 0.0078125 -0.00155328 3.29705e-06 -3.12611e-06 0.3855
0.472656 0.0078125 -0.00155953 3.15041e-06 -3.13873e-06 0.387044
0.476563 0.0078125 -0.00156549 3.00159e-06 -3.15077e-06 0.388517
0.480469 0.0078125 -0.00157116 2.85059e-06 -3.16222e-06 0.389919
0.484375 0.0078125 -0.00157654 2.69744e-06 -3.17308e-06 0.391248
0.488281 0.0078125 -0.00158162 2.54216e-06 -3.18334e-06 0.392504
0.492188 0.0078125 -0.00158639 2.38477e-06 -3.19298e-06 0.393685
0.496094 0.0078125 -0.00159087 2.22531e-06 -3.20201e-06 0.394791
0.5 0.0078125 -0.00159503 2.06379e-06 -3.21041e-06 0.39582
0.503906 0.0078125 -0.00159888 1.90026e-06 -3.21817e-06 0.396773
0.507813 0.0078125 -0.00160241 1.73475e-06 -3.2253e-06 0.397646
0.511719 0.0078125 -0.00160562 1.56729e-06 -3.23177e-06 0.398441
0.515625 0.0078125 -0.0016085 1.39792e-06 -3.23758e-06 0.399156
0.519531 0.0078125 -0.00161106 1.22669e-06 -3.24273e-06 0.39979
0.523438 0.0078125 -0.00161328 1.05363e-06 -3.2472e-06 0.400341
0.527344 0.0078125 -0.00161517 8.78805e-07 -3.251e-06 0.400811
0.53125 0.0078125 -0.00161672 7.0225e-07 -3.25411e-06 0.401196
0.535156 0.0078125 -0.00161793 5.24023e-07 -3.25652e-06 0.401498
0.539063 0.0078125 -0.00161879 3.44176e-07 -3.25824e-06 0.401714
0.542969 0.0078125 -0.00161931 1.62768e-07 -3.25925e-06 0.401845
0.546875 0.0078125 -0.00161947 -2.01433e-08 -3.25955e-06 0.401889
0.550781 0.0078125 -0.00161928 -2.04494e-07 -3.25913e-06 0.401846
0.554688 0.0078125 -0.00161873 -3.90221e-07 -3.25799e-06 0.401714
0.558594 0.0078125 -0.00161782 -5.77257e-07 -3.25612e-06 0.401495
0.5625 0.0078125 -0.00161656 -7.65531e-07 -3.25351e-06 0.401186
0.566406 0.0078125 -0.00161492 -9.54973e-07 -3.25017e-06 0.400788
0.570313 0.0078125 -0.00161292 -1.14551e-06 -3.24609e-06 0.400299
0.574219 0.0078125 -0.00161056 -1.33706e-06 -3.24125e-06 0.39972
0.578125 0.0078125 -0.00160782 -1.52955e-06 -3.23567e-06 0.399049
0.582031 0.0078125 -0.00160471 -1.7229e-06 -3.22934e-06 0.398287
0.585938 0.0078125 -0.00160122 -1.91701e-06 -3.22224e-06 0.397433
0.589844 0.0078125 -0.00159736 -2.11182e-06 -3.21439e-06 0.396487
0.59375 0.0078125 -0.00159313 -2.30723e-06 -3.20578e-06 0.395447
0.597656 0.0078125 -0.00158852 -2.50315e-06 -3.19639e-06 0.394315
0.601563 0.0078125 -0.00158353 -2.6995e-06 -3.18625e-06 0.39309
0.605469 0.0078125 -0.00157816 -2.89617e-06 -3.17533e-06 0.391771
0.609375 0.0078125 -0.00157241 -3.09308e-06 -3.16365e-06 0.390359
0.613281 0.0078125 -0.00156628 -3.29013e-06 -3.15119e-06 0.388853
0.617188 0.0078125 -0.00155977 -3.48722e-06 -3.13797e-06 0.387254
0.621094 0.0078125 -0.00155288 -3.68425e-06 -3.12397e-06 0.385561
0.625 0.0078125 -0.00154561 -3.88113e-06 -3.10921e-06 0.383774
0.628906 0.0078125 -0.00153796 -4.07776e-06 -3.09367e-06 0.381893
0.632813 0.0078125 -0.00152993 -4.27403e-06 -3.07737e-06 0.37992
0.636719 0.0078125 -0.00152153 -4.46984e-06 -3.0603e-06 0.377852
0.640625 0.0078125 -0.00151274 -4.66508e-06 -3.04247e-06 0.375692
0.644531 0.0078125 -0.00150358 -4.85967e-06 -3.02388e-06 0.373439
0.648438 0.0078125 -0.00149404 -5.05349e-06 -3.00452e-06 0.371093
0.652344 0.0078125 -0.00148413 -5.24644e-06 -2.98441e-06 0.368656
0.65625 0.0078125 -0.00147385 -5.43842e-06 -2.96355e-06 0.366126
0.660156 0.0078125 -0.0014632 -5.62932e-06 -2.94194e-06 0.363506
0.664063 0.0078125 -0.00145218 -5.81904e-06 -2.91959e-06 0.360794
0.667969 0.0078125 -0.0014408 -6.00747e-06 -2.89649e-06 0.357992
0.671875 0.0078125 -0.00142905 -6.19453e-06 -2.87267e-06 0.355101
0.675781 0.0078125 -0.00141694 -6.3801e-06 -2.84811e-06 0.35212
0.679688 0.0078125 -0.00140447 -6.56409e-06 -2.82283e-06 0.349052
0.683594 0.0078125 -0.00139165 -6.7464e-06 -2.79684e-06 0.345895
0.6875 0.0078125 -0.00137848 -6.92692e-06 -2.77013e-06 0.342652
0.691406 0.0078125 -0.00136496 -7.10557e-06 -2.74273e-06 0.339323
0.695313 0.0078125 -0.0013511 -7.28225e-06 -2.71463e-06 0.335909
0.699219 0.0078125 -0.0013369 -7.45687e-06 -2.68584e-06 0.33241
0.703125 0.0078125 -0.00132236 -7.62934e-06 -2.65637e-06 0.328829
0.707031 0.0078125 -0.00130749 -7.79956e-06 -2.62624e-06 0.325165
0.710938 0.0078125 -0.00129229 -7.96746e-06 -2.59544e-06 0.32142
0.714844 0.0078125 -0.00127676 -8.13294e-06 -2.56399e-06 0.317594
0.71875 0.0078125 -0.00126092 -8.29593e-06 -2.5319e-06 0.31369
0.722656 0.0078125 -0.00124477 -8.45634e-06 -2.49918e-06 0.309708
0.726563 0.0078125 -0.0012283 -8.6141e-06 -2.46584e-06 0.305649
0.730469 0.0078125 -0.00121153 -8.76914e-06 -2.43188e-06 0.301515
0.734375 0.0078125 -0.00119447 -8.92138e-06 -2.39732e-06 0.297307
0.738281 0.0078125 -0.00117711 -9.07074e-06 -2.36218e-06 0.293026
0.742188 0.0078125 -0.00115946 -9.21717e-06 -2.32645e-06 0.288673
0.746094 0.0078125 -0.00114153 -9.3606e-06 -2.29016e-06 0.28425
0.75 0.0078125 -0.00112332 -9.50096e-06 -2.25331e-06 0.279759
0.753906 0.0078125 -0.00110484 -9.63818e-06 -2.21593e-06 0.2752
0.757813 0.0078125 -0.0010861 -9.77222e-06 -2.17801e-06 0.270575
0.761719 0.0078125 -0.0010671 -9.903e-06 -2.13957e-06 0.265886
0.765625 0.0078125 -0.00104785 -1.00305e-05 -2.10063e-06 0.261134
0.769531 0.0078125 -0.00102835 -1.01546e-05 -2.06119e-06 0.256321
0.773438 0.0078125 -0.00100862 -1.02752e-05 -2.02128e-06 0.251448
0.777344 0.0078125 -0.000988649 -1.03924e-05 -1.9809e-06 0.246517
0.78125 0.0078125 -0.000968455 -1.0506e-05 -1.94008e-06 0.24153
0.785156 0.0078125 -0.000948042 -1.0616e-05 -1.89881e-06 0.236488
0.789063 0.0078125 -0.000927417 -1.07222e-05 -1.85712e-06 0.231394
0.792969 0.0078125 -0.000906588 -1.08247e-05 -1.81503e-06 0.226248
0.796875 0.0078125 -0.000885561 -1.09233e-05 -1.77254e-06 0.221052
0.800781 0.0078125 -0.000864346 -1.10179e-05 -1.72967e-06 0.215809
0.804688 0.0078125 -0.000842948 -1.11085e-05 -1.68644e-06 0.210521
0.808594 0.0078125 -0.000821377 -1.11948e-05 -1.64287e-06 0.205189
0.8125 0.0078125 -0.000799641 -1.12768e-05 -1.59896e-06 0.199816
0.816406 0.0078125 -0.000777748 -1.13542e-05 -1.55475e-06 0.194403
0.820313 0.0078125 -0.000755707 -1.1427e-05 -1.51024e-06 0.188954
0.824219 0.0078125 -0.000733528 -1.14949e-05 -1.46545e-06 0.183469
0.828125 0.0078125 -0.00071122 -1.15577e-05 -1.42041e-06 0.177953
0.832031 0.0078125 -0.000688794 -1.16151e-05 -1.37513e-06 0.172406
0.835938 0.0078125 -0.00066626 -1.16668e-05 -1.32964e-06 0.166833
0.839844 0.0078125 -0.000643631 -1.17124e-05 -1.28396e-06 0.161236
0.84375 0.0078125 -0.000620917 -1.17517e-05 -1.23812e-06 0.155617
0.847656 0.0078125 -0.000598133 -1.1784e-05 -1.19213e-06 0.149981
0.851563 0.0078125 -0.000575291 -1.18091e-05 -1.14603e-06 0.14433