Title=" Lid Driven Flow"
VARIABLES="X","Y","U","V","psi","xi"
ZONE T= "BOX", I= 201, J=201, F=POINT
0 0 0 0 0.00342082 0
0.005 0 0 0 0 0
0.01 0 0 0 0 0
0.015 0 0 0 0 161.891
0.02 0 0 0 0 176.121
0.025 0 0 0 0 155.598
0.03 0 0 0 0 133.203
0.035 0 0 0 0 115.679
0.04 0 0 0 0 102.822
0.045 0 0 0 0 93.2868
0.05 0 0 0 0 85.964
0.055 0 0 0 0 80.1206
0.06 0 0 0 0 75.2981
0.065 0 0 0 0 71.2075
0.07 0 0 0 0 67.661
0.075 0 0 0 0 64.532
0.08 0 0 0 0 61.7321
0.085 0 0 0 0 59.1976
0.09 0 0 0 0 56.8818
0.095 0 0 0 0 54.7493
0.1 0 0 0 0 52.7731
0.105 0 0 0 0 50.9321
0.11 0 0 0 0 49.2096
0.115 0 0 0 0 47.5922
0.12 0 0 0 0 46.069
0.125 0 0 0 0 44.6308
0.13 0 0 0 0 43.2701
0.135 0 0 0 0 41.9803
0.14 0 0 0 0 40.7558
0.145 0 0 0 0 39.5916
0.15 0 0 0 0 38.4835
0.155 0 0 0 0 37.4276
0.16 0 0 0 0 36.4203
0.165 0 0 0 0 35.4583
0.17 0 0 0 0 34.5389
0.175 0 0 0 0 33.6591
0.18 0 0 0 0 32.8166
0.185 0 0 0 0 32.0089
0.19 0 0 0 0 31.2339
0.195 0 0 0 0 30.4895
0.2 0 0 0 0 29.7736
0.205 0 0 0 0 29.0846
0.21 0 0 0 0 28.4206
0.215 0 0 0 0 27.78
0.22 0 0 0 0 27.1613
0.225 0 0 0 0 26.5631
0.23 0 0 0 0 25.9838
0.235 0 0 0 0 25.4223
0.24 0 0 0 0 24.8773
0.245 0 0 0 0 24.3476
0.25 0 0 0 0 23.8322
0.255 0 0 0 0 23.33
0.26 0 0 0 0 22.84
0.265 0 0 0 0 22.3614
0.27 0 0 0 0 21.8932
0.275 0 0 0 0 21.4347
0.28 0 0 0 0 20.9851
0.285 0 0 0 0 20.5437
0.29 0 0 0 0 20.1098
0.295 0 0 0 0 19.6829
0.3 0 0 0 0 19.2624
0.305 0 0 0 0 18.8478
0.31 0 0 0 0 18.4385
0.315 0 0 0 0 18.0342
0.32 0 0 0 0 17.6343
0.325 0 0 0 0 17.2387
0.33 0 0 0 0 16.8469
0.335 0 0 0 0 16.4586
0.34 0 0 0 0 16.0736
0.345 0 0 0 0 15.6916
0.35 0 0 0 0 15.3125
0.355 0 0 0 0 14.936
0.36 0 0 0 0 14.5621
0.365 0 0 0 0 14.1906
0.37 0 0 0 0 13.8214
0.375 0 0 0 0 13.4545
0.38 0 0 0 0 13.0898
0.385 0 0 0 0 12.7273
0.39 0 0 0 0 12.3671
0.395 0 0 0 0 12.0091
0.4 0 0 0 0 11.6534
0.405 0 0 0 0 11.3001
0.41 0 0 0 0 10.9493
0.415 0 0 0 0 10.601
0.42 0 0 0 0 10.2555
0.425 0 0 0 0 9.91276
0.43 0 0 0 0 9.57303
0.435 0 0 0 0 9.23646
0.44 0 0 0 0 8.90322
0.445 0 0 0 0 8.57348
0.45 0 0 0 0 8.24745
0.455 0 0 0 0 7.92531
0.46 0 0 0 0 7.60728
0.465 0 0 0 0 7.29356
0.47 0 0 0 0 6.98435
0.475 0 0 0 0 6.67987
0.48 0 0 0 0 6.38033
0.485 0 0 0 0 6.08594
0.49 0 0 0 0 5.79689
0.495 0 0 0 0 5.51339
0.5 0 0 0 0 5.23563
0.505 0 0 0 0 4.96379
0.51 0 0 0 0 4.69806
0.515 0 0 0 0 4.43859
0.52 0 0 0 0 4.18553
0.525 0 0 0 0 3.93904
0.53 0 0 0 0 3.69924
0.535 0 0 0 0 3.46624
0.54 0 0 0 0 3.24014
0.545 0 0 0 0 3.02104
0.55 0 0 0 0 2.80899
0.555 0 0 0 0 2.60405
0.56 0 0 0 0 2.40626
0.565 0 0 0 0 2.21563
0.57 0 0 0 0 2.03218
0.575 0 0 0 0 1.85588
0.58 0 0 0 0 1.68671
0.585 0 0 0 0 1.52463
0.59 0 0 0 0 1.36957
0.595 0 0 0 0 1.22146
0.6 0 0 0 0 1.08022
0.605 0 0 0 0 0.945735
0.61 0 0 0 0 0.817899
0.615 0 0 0 0 0.696585
0.62 0 0 0 0 0.581656
0.625 0 0 0 0 0.472968
0.63 0 0 0 0 0.370365
0.635 0 0 0 0 0.273684
0.64 0 0 0 0 0.182758
0.645 0 0 0 0 0.0974105
0.65 0 0 0 0 0.017462
0.655 0 0 0 0 -0.0572715
0.66 0 0 0 0 -0.126977
0.665 0 0 0 0 -0.191844
0.67 0 0 0 0 -0.252065
0.675 0 0 0 0 -0.30783
0.68 0 0 0 0 -0.359334
0.685 0 0 0 0 -0.40677
0.69 0 0 0 0 -0.450331
0.695 0 0 0 0 -0.49021
0.7 0 0 0 0 -0.526597
0.705 0 0 0 0 -0.559685
0.71 0 0 0 0 -0.589663
0.715 0 0 0 0 -0.616718
0.72 0 0 0 0 -0.641038
0.725 0 0 0 0 -0.662805
0.73 0 0 0 0 -0.6822
0.735 0 0 0 0 -0.6994
0.74 0 0 0 0 -0.714577
0.745 0 0 0 0 -0.727899
0.75 0 0 0 0 -0.739524
0.755 0 0 0 0 -0.749607
0.76 0 0 0 0 -0.758288
0.765 0 0 0 0 -0.765701
0.77 0 0 0 0 -0.771964
0.775 0 0 0 0 -0.777185
0.78 0 0 0 0 -0.781454
0.785 0 0 0 0 -0.784846
0.79 0 0 0 0 -0.787421
0.795 0 0 0 0 -0.789218
0.8 0 0 0 0 -0.790261
0.805 0 0 0 0 -0.790552
0.81 0 0 0 0 -0.790077
0.815 0 0 0 0 -0.788806
0.82 0 0 0 0 -0.786689
0.825 0 0 0 0 -0.783663
0.83 0 0 0 0 -0.779649
0.835 0 0 0 0 -0.77456
0.84 0 0 0 0 -0.768296
0.845 0 0 0 0 -0.760753
0.85 0 0 0 0 -0.75182
0.855 0 0 0 0 -0.741388
0.86 0 0 0 0 -0.729349
0.865 0 0 0 0 -0.715603
0.87 0 0 0 0 -0.700056
0.875 0 0 0 0 -0.682631
0.88 0 0 0 0 -0.663264
0.885 0 0 0 0 -0.641914
0.89 0 0 0 0 -0.618561
0.895 0 0 0 0 -0.593213
0.9 0 0 0 0 -0.565906
0.905 0 0 0 0 -0.536711
0.91 0 0 0 0 -0.505731
0.915 0 0 0 0 -0.473106
0.92 0 0 0 0 -0.439016
0.925 0 0 0 0 -0.403678
0.93 0 0 0 0 -0.367352
0.935 0 0 0 0 -0.330338
0.94 0 0 0 0 -0.292977
0.945 0 0 0 0 -0.255653
0.95 0 0 0 0 -0.21879
0.955 0 0 0 0 -0.182855
0.96 0 0 0 0 -0.148353
0.965 0 0 0 0 -0.115831
0.97 0 0 0 0 -0.085875
0.975 0 0 0 0 -0.0591042
0.98 0 0 0 0 -0.0361652
0.985 0 0 0 0 -0.0177104
0.99 0 0 0 0 -0.00434987
0.995 0 0 0 0 0.00346481
1 0 0 0 0 0.00571148
0 0.005 0 0 0 0
0.005 0.005 0 0 0 0
0.01 0.005 0 0 0 73.7283
0.015 0.005 0 0 0 62.0742
0.02 0.005 0 0 0 45.7343
0.025 0.005 0 0 0 33.9726
0.03 0.005 0 0 0 26.0742
0.035 0.005 0 0 0 20.6385
0.04 0.005 0 0 0 16.7253
0.045 0.005 0 0 0 13.7851
0.05 0.005 0 0 0 11.4997
0.055 0.005 0 0 0 9.67891
0.06 0.005 0 0 0 8.20306
0.065 0.005 0 0 0 6.99262
0.07 0.005 0 0 0 5.99201
0.075 0.005 0 0 0 5.16057
0.08 0.005 0 0 0 4.46746
0.085 0.005 0 0 0 3.8886
0.09 0.005 0 0 0 3.40479
0.095 0.005 0 0 0 3.00046
0.1 0.005 0 0 0 2.66286
0.105 0.005 0 0 0 2.38146
0.11 0.005 0 0 0 2.14751
0.115 0.005 0 0 0 1.95374
0.12 0.005 0 0 0 1.79406
0.125 0.005 0 0 0 1.66339
0.13 0.005 0 0 0 1.55745
0.135 0.005 0 0 0 1.4727
0.14 0.005 0 0 0 1.40614
0.145 0.005 0 0 0 1.35528
0.15 0.005 0 0 0 1.31802
0.155 0.005 0 0 0 1.29261
0.16 0.005 0 0 0 1.27759
0.165 0.005 0 0 0 1.27173
0.17 0.005 0 0 0 1.27402
0.175 0.005 0 0 0 1.2836
0.18 0.005 0 0 0 1.29975
0.185 0.005 0 0 0 1.32188
0.19 0.005 0 0 0 1.34949
0.195 0.005 0 0 0 1.38216
0.2 0.005 0 0 0 1.41954
0.205 0.005 0 0 0 1.46133
0.21 0.005 0 0 0 1.50727
0.215 0.005 0 0 0 1.55716
0.22 0.005 0 0 0 1.61081
0.225 0.005 0 0 0 1.66805
0.23 0.005 0 0 0 1.72873
0.235 0.005 0 0 0 1.79273
0.24 0.005 0 0 0 1.85994
0.245 0.005 0 0 0 1.93022
0.25 0.005 0 0 0 2.00349
0.255 0.005 0 0 0 2.07964
0.26 0.005 0 0 0 2.15857
0.265 0.005 0 0 0 2.24018
0.27 0.005 0 0 0 2.32438
0.275 0.005 0 0 0 2.41105
0.28 0.005 0 0 0 2.50009
0.285 0.005 0 0 0 2.5914
0.29 0.005 0 0 0 2.68487
0.295 0.005 0 0 0 2.78038
0.3 0.005 0 0 0 2.8778
0.305 0.005 0 0 0 2.97702
0.31 0.005 0 0 0 3.07791
0.315 0.005 0 0 0 3.18031
0.32 0.005 0 0 0 3.2841
0.325 0.005 0 0 0 3.38913
0.33 0.005 0 0 0 3.49524
0.335 0.005 0 0 0 3.60228
0.34 0.005 0 0 0 3.71007
0.345 0.005 0 0 0 3.81845
0.35 0.005 0 0 0 3.92725
0.355 0.005 0 0 0 4.03628
0.36 0.005 0 0 0 4.14536
0.365 0.005 0 0 0 4.2543
0.37 0.005 0 0 0 4.36291
0.375 0.005 0 0 0 4.47099
0.38 0.005 0 0 0 4.57833
0.385 0.005 0 0 0 4.68473
0.39 0.005 0 0 0 4.78999
0.395 0.005 0 0 0 4.89389
0.4 0.005 0 0 0 4.99623
0.405 0.005 0 0 0 5.09678
0.41 0.005 0 0 0 5.19535
0.415 0.005 0 0 0 5.2917
0.42 0.005 0 0 0 5.38563
0.425 0.005 0 0 0 5.47692
0.43 0.005 0 0 0 5.56535
0.435 0.005 0 0 0 5.65073
0.44 0.005 0 0 0 5.73283
0.445 0.005 0 0 0 5.81145
0.45 0.005 0 0 0 5.88638
0.455 0.005 0 0 0 5.95743
0.46 0.005 0 0 0 6.0244
0.465 0.005 0 0 0 6.0871
0.47 0.005 0 0 0 6.14535
0.475 0.005 0 0 0 6.19897
0.48 0.005 0 0 0 6.24778
0.485 0.005 0 0 0 6.29162
0.49 0.005 0 0 0 6.33034
0.495 0.005 0 0 0 6.36379
0.5 0.005 0 0 0 6.39183
0.505 0.005 0 0 0 6.41434
0.51 0.005 0 0 0 6.43119
0.515 0.005 0 0 0 6.44228
0.52 0.005 0 0 0 6.44752
0.525 0.005 0 0 0 6.44682
0.53 0.005 0 0 0 6.44011
0.535 0.005 0 0 0 6.42734
0.54 0.005 0 0 0 6.40847
0.545 0.005 0 0 0 6.38346
0.55 0.005 0 0 0 6.35231
0.555 0.005 0 0 0 6.31501
0.56 0.005 0 0 0 6.27158
0.565 0.005 0 0 0 6.22205
0.57 0.005 0 0 0 6.16648
0.575 0.005 0 0 0 6.10491
0.58 0.005 0 0 0 6.03745
0.585 0.005 0 0 0 5.96417
0.59 0.005 0 0 0 5.8852
0.595 0.005 0 0 0 5.80067
0.6 0.005 0 0 0 5.71071
0.605 0.005 0 0 0 5.6155
0.61 0.005 0 0 0 5.51522
0.615 0.005 0 0 0 5.41004
0.62 0.005 0 0 0 5.30019
0.625 0.005 0 0 0 5.18588
0.63 0.005 0 0 0 5.06736
0.635 0.005 0 0 0 4.94488
0.64 0.005 0 0 0 4.81869
0.645 0.005 0 0 0 4.68907
0.65 0.005 0 0 0 4.55632
0.655 0.005 0 0 0 4.42072
0.66 0.005 0 0 0 4.28258
0.665 0.005 0 0 0 4.14222
0.67 0.005 0 0 0 3.99996
0.675 0.005 0 0 0 3.85611
0.68 0.005 0 0 0 3.71102
0.685 0.005 0 0 0 3.56502
0.69 0.005 0 0 0 3.41844
0.695 0.005 0 0 0 3.27161
0.7 0.005 0 0 0 3.12488
0.705 0.005 0 0 0 2.97856
0.71 0.005 0 0 0 2.833
0.715 0.005 0 0 0 2.6885
0.72 0.005 0 0 0 2.5454
0.725 0.005 0 0 0 2.40398
0.73 0.005 0 0 0 2.26456
0.735 0.005 0 0 0 2.12742
0.74 0.005 0 0 0 1.99284
0.745 0.005 0 0 0 1.86107
0.75 0.005 0 0 0 1.73236
0.755 0.005 0 0 0 1.60696
0.76 0.005 0 0 0 1.48507
0.765 0.005 0 0 0 1.36689
0.77 0.005 0 0 0 1.25261
0.775 0.005 0 0 0 1.14239
0.78 0.005 0 0 0 1.03638
0.785 0.005 0 0 0 0.934707
0.79 0.005 0 0 0 0.837476
0.795 0.005 0 0 0 0.744778
0.8 0.005 0 0 0 0.656684
0.805 0.005 0 0 0 0.573244
0.81 0.005 0 0 0 0.494492
0.815 0.005 0 0 0 0.420442
0.82 0.005 0 0 0 0.351092
0.825 0.005 0 0 0 0.286422
0.83 0.005 0 0 0 0.226395
0.835 0.005 0 0 0 0.170959
0.84 0.005 0 0 0 0.120049
0.845 0.005 0 0 0 0.073585
0.85 0.005 0 0 0 0.0314737
0.855 0.005 0 0 0 -0.00638912
0.86 0.005 0 0 0 -0.0401182
0.865 0.005 0 0 0 -0.0698379
0.87 0.005 0 0 0 -0.0956812
0.875 0.005 0 0 0 -0.117789
0.88 0.005 0 0 0 -0.136307
0.885 0.005 0 0 0 -0.151388
0.89 0.005 0 0 0 -0.16319
0.895 0.005 0 0 0 -0.171875
0.9 0.005 0 0 0 -0.177606
0.905 0.005 0 0 0 -0.180552
0.91 0.005 0 0 0 -0.180884
0.915 0.005 0 0 0 -0.178778
0.92 0.005 0 0 0 -0.174412
0.925 0.005 0 0 0 -0.167969
0.93 0.005 0 0 0 -0.159638
0.935 0.005 0 0 0 -0.149617
0.94 0.005 0 0 0 -0.138114
0.945 0.005 0 0 0 -0.125352
0.95 0.005 0 0 0 -0.111571
0.955 0.005 0 0 0 -0.0970376
0.96 0.005 0 0 0 -0.0820477
0.965 0.005 0 0 0 -0.0669392
0.97 0.005 0 0 0 -0.0521009
0.975 0.005 0 0 0 -0.037986
0.98 0.005 0 0 0 -0.0251249
0.985 0.005 0 0 0 -0.0141341
0.99 0.005 0 0 0 -0.00570315
0.995 0.005 0 0 0 -0.000509551
1 0.005 0 0 0 0.00108836
0 0.01 0 0 0.00108836 0
0.005 0.01 0 0 0 -326.272
0.01 0.01 -0.180048 0.0775928 -0.000921603 -44.4002
0.015 0.01 -0.184875 -0.0349924 -0.000775928 9.53306
0.02 0.01 -0.15641 -0.035127 -0.000571679 19.1188
0.025 0.01 -0.12758 -0.0245751 -0.000424657 18.9911
0.03 0.01 -0.104165 -0.0166676 -0.000325928 16.8232
0.035 0.01 -0.0859149 -0.0116861 -0.000257981 14.4887
0.04 0.01 -0.0716378 -0.0085668 -0.000209067 12.4162
0.045 0.01 -0.0602941 -0.00653205 -0.000172313 10.66
0.05 0.01 -0.0511323 -0.00513269 -0.000143746 9.18555
0.055 0.01 -0.0436305 -0.00412078 -0.000120986 7.94576
0.06 0.01 -0.0374238 -0.00335786 -0.000102538 6.89917
0.065 0.01 -0.0322504 -0.00276381 -8.74078e-05 6.01245
0.07 0.01 -0.0279165 -0.00229006 -7.49002e-05 5.25919
0.075 0.01 -0.0242743 -0.00190569 -6.45072e-05 4.61832
0.08 0.01 -0.0212078 -0.00158996 -5.58433e-05 4.07278
0.085 0.01 -0.018624 -0.00132834 -4.86075e-05 3.60851
0.09 0.01 -0.0164471 -0.00111018 -4.25598e-05 3.21378
0.095 0.01 -0.0146146 -0.000927413 -3.75057e-05 2.87874
0.1 0.01 -0.0130744 -0.00077375 -3.32857e-05 2.59502
0.105 0.01 -0.011783 -0.000644178 -2.97682e-05 2.35548
0.11 0.01 -0.0107037 -0.00053464 -2.68439e-05 2.15404
0.115 0.01 -0.00980546 -0.000441811 -2.44218e-05 1.98549
0.12 0.01 -0.00906229 -0.000362945 -2.24258e-05 1.84536
0.125 0.01 -0.00845213 -0.000295761 -2.07923e-05 1.72984
0.13 0.01 -0.00795633 -0.000238355 -1.94681e-05 1.63567
0.135 0.01 -0.00755916 -0.000189138 -1.84087e-05 1.56006
0.14 0.01 -0.0072473 -0.000146777 -1.75767e-05 1.50063
0.145 0.01 -0.00700954 -0.000110156 -1.69409e-05 1.45534
0.15 0.01 -0.00683641 -7.83369e-05 -1.64752e-05 1.42247
0.155 0.01 -0.00671989 -5.05354e-05 -1.61576e-05 1.40055
0.16 0.01 -0.00665328 -2.60927e-05 -1.59698e-05 1.38831
0.165 0.01 -0.00663089 -4.45734e-06 -1.58966e-05 1.3847
0.17 0.01 -0.00664794 1.48325e-05 -1.59252e-05 1.3888
0.175 0.01 -0.00670041 3.21626e-05 -1.60449e-05 1.39986
0.18 0.01 -0.00678492 4.78548e-05 -1.62468e-05 1.41721
0.185 0.01 -0.0068986 6.2177e-05 -1.65235e-05 1.4403
0.19 0.01 -0.00703904 7.53516e-05 -1.68686e-05 1.46866
0.195 0.01 -0.0072042 8.75625e-05 -1.7277e-05 1.50188
0.2 0.01 -0.00739236 9.89614e-05 -1.77442e-05 1.53961
0.205 0.01 -0.00760202 0.000109673 -1.82666e-05 1.58156
0.21 0.01 -0.00783193 0.000119798 -1.88409e-05 1.62747
0.215 0.01 -0.00808098 0.00012942 -1.94646e-05 1.67711
0.22 0.01 -0.00834822 0.000138604 -2.01351e-05 1.73027
0.225 0.01 -0.0086328 0.000147404 -2.08506e-05 1.7868
0.23 0.01 -0.00893397 0.00015586 -2.16091e-05 1.84652
0.235 0.01 -0.00925104 0.000164004 -2.24092e-05 1.90928
0.24 0.01 -0.00958338 0.000171861 -2.32492e-05 1.97496
0.245 0.01 -0.00993039 0.000179448 -2.41278e-05 2.04342
0.25 0.01 -0.0102915 0.000186775 -2.50437e-05 2.11455
0.255 0.01 -0.0106662 0.00019385 -2.59955e-05 2.18822
0.26 0.01 -0.0110539 0.000200677 -2.69822e-05 2.26432
0.265 0.01 -0.0114541 0.000207254 -2.80023e-05 2.34273
0.27 0.01 -0.0118662 0.000213578 -2.90547e-05 2.42335
0.275 0.01 -0.0122898 0.000219645 -3.01381e-05 2.50604
0.28 0.01 -0.0127242 0.000225447 -3.12511e-05 2.59071
0.285 0.01 -0.0131689 0.000230975 -3.23925e-05 2.67722
0.29 0.01 -0.0136233 0.000236219 -3.35609e-05 2.76546
0.295 0.01 -0.0140868 0.000241167 -3.47547e-05 2.85529
0.3 0.01 -0.0145588 0.000245807 -3.59726e-05 2.9466
0.305 0.01 -0.0150386 0.000250126 -3.72128e-05 3.03924
0.31 0.01 -0.0155256 0.000254111 -3.84738e-05 3.13308
0.315 0.01 -0.016019 0.000257748 -3.97539e-05 3.22798
0.32 0.01 -0.0165182 0.000261023 -4.10513e-05 3.32379
0.325 0.01 -0.0170224 0.000263921 -4.23642e-05 3.42036
0.33 0.01 -0.0175308 0.00026643 -4.36905e-05 3.51754
0.335 0.01 -0.0180427 0.000268534 -4.50285e-05 3.61518
0.34 0.01 -0.0185572 0.00027022 -4.63759e-05 3.7131
0.345 0.01 -0.0190735 0.000271475 -4.77307e-05 3.81116
0.35 0.01 -0.0195908 0.000272285 -4.90906e-05 3.90917
0.355 0.01 -0.0201081 0.00027264 -5.04535e-05 4.00697
0.36 0.01 -0.0206245 0.000272526 -5.18171e-05 4.10438
0.365 0.01 -0.0211393 0.000271933 -5.31788e-05 4.20123
0.37 0.01 -0.0216513 0.00027085 -5.45364e-05 4.29734
0.375 0.01 -0.0221597 0.000269269 -5.58873e-05 4.39252
0.38 0.01 -0.0226635 0.00026718 -5.72291e-05 4.4866
0.385 0.01 -0.0231617 0.000264576 -5.85592e-05 4.57939
0.39 0.01 -0.0236534 0.00026145 -5.98749e-05 4.67071
0.395 0.01 -0.0241376 0.000257797 -6.11737e-05 4.76036
0.4 0.01 -0.0246132 0.000253613 -6.24529e-05 4.84818
0.405 0.01 -0.0250794 0.000248895 -6.37098e-05 4.93396
0.41 0.01 -0.025535 0.00024364 -6.49419e-05 5.01754
0.415 0.01 -0.0259791 0.000237848 -6.61463e-05 5.09872
0.42 0.01 -0.0264107 0.000231519 -6.73204e-05 5.17732
0.425 0.01 -0.0268288 0.000224655 -6.84615e-05 5.25317
0.43 0.01 -0.0272324 0.00021726 -6.9567e-05 5.32609
0.435 0.01 -0.0276207 0.000209338 -7.06341e-05 5.3959
0.44 0.01 -0.0279925 0.000200895 -7.16604e-05 5.46245
0.445 0.01 -0.0283471 0.000191939 -7.26431e-05 5.52555
0.45 0.01 -0.0286834 0.000182478 -7.35798e-05 5.58505
0.455 0.01 -0.0290007 0.000172524 -7.44679e-05 5.6408
0.46 0.01 -0.029298 0.000162087 -7.53051e-05 5.69264
0.465 0.01 -0.0295744 0.000151182 -7.60889e-05 5.74043
0.47 0.01 -0.0298292 0.000139824 -7.6817e-05 5.78402
0.475 0.01 -0.0300616 0.000128028 -7.74871e-05 5.82329
0.48 0.01 -0.0302709 0.000115813 -7.80973e-05 5.8581
0.485 0.01 -0.0304563 0.000103199 -7.86453e-05 5.88835
0.49 0.01 -0.0306172 9.02061e-05 -7.91293e-05 5.91391
0.495 0.01 -0.030753 7.68572e-05 -7.95474e-05 5.9347
0.5 0.01 -0.030863 6.31764e-05 -7.9898e-05 5.95061
0.505 0.01 -0.0309468 4.91892e-05 -8.01793e-05 5.96155
0.51 0.01 -0.0310038 3.49226e-05 -8.03899e-05 5.96747
0.515 0.01 -0.0310337 2.04051e-05 -8.05286e-05 5.96828
0.52 0.01 -0.0310361 5.66648e-06 -8.0594e-05 5.96394
0.525 0.01 -0.0310106 -9.26206e-06 -8.05853e-05 5.95441
0.53 0.01 -0.030957 -2.4348e-05 -8.05015e-05 5.93964
0.535 0.01 -0.030875 -3.95577e-05 -8.03419e-05 5.91961
0.54 0.01 -0.0307647 -5.48562e-05 -8.0106e-05 5.89433
0.545 0.01 -0.0306258 -7.02076e-05 -7.97934e-05 5.86377
0.55 0.01 -0.0304584 -8.55747e-05 -7.94039e-05 5.82797
0.555 0.01 -0.0302626 -0.00010092 -7.89377e-05 5.78694
0.56 0.01 -0.0300384 -0.000116204 -7.83948e-05 5.74072
0.565 0.01 -0.0297861 -0.000131388 -7.77757e-05 5.68937
0.57 0.01 -0.029506 -0.000146431 -7.7081e-05 5.63293
0.575 0.01 -0.0291984 -0.000161293 -7.63115e-05 5.57149
0.58 0.01 -0.0288637 -0.000175934 -7.54681e-05 5.50513
0.585 0.01 -0.0285025 -0.000190312 -7.45522e-05 5.43396
0.59 0.01 -0.0281152 -0.000204386 -7.35651e-05 5.35808
0.595 0.01 -0.0277025 -0.000218116 -7.25084e-05 5.27763
0.6 0.01 -0.0272652 -0.000231461 -7.1384e-05 5.19272
0.605 0.01 -0.0268039 -0.000244381 -7.01939e-05 5.10353
0.61 0.01 -0.0263196 -0.000256836 -6.89403e-05 5.01019
0.615 0.01 -0.0258132 -0.000268789 -6.76256e-05 4.9129
0.62 0.01 -0.0252856 -0.000280202 -6.62524e-05 4.81182
0.625 0.01 -0.0247379 -0.00029104 -6.48236e-05 4.70716
0.63 0.01 -0.0241712 -0.000301267 -6.33421e-05 4.59911
0.635 0.01 -0.0235866 -0.000310851 -6.1811e-05 4.4879
0.64 0.01 -0.0229853 -0.000319762 -6.02337e-05 4.37373
0.645 0.01 -0.0223687 -0.00032797 -5.86135e-05 4.25685
0.65 0.01 -0.0217381 -0.000335449 -5.6954e-05 4.13749
0.655 0.01 -0.0210947 -0.000342175 -5.5259e-05 4.0159
0.66 0.01 -0.0204401 -0.000348127 -5.35323e-05 3.89233
0.665 0.01 -0.0197755 -0.000353287 -5.17778e-05 3.76704
0.67 0.01 -0.0191026 -0.000357639 -4.99995e-05 3.64029
0.675 0.01 -0.0184227 -0.00036117 -4.82015e-05 3.51235
0.68 0.01 -0.0177374 -0.000363872 -4.63879e-05 3.38348
0.685 0.01 -0.0170482 -0.000365738 -4.45628e-05 3.25396
0.69 0.01 -0.0163565 -0.000366766 -4.27305e-05 3.12406
0.695 0.01 -0.015664 -0.000366958 -4.08952e-05 2.99404
0.7 0.01 -0.0149721 -0.000366318 -3.9061e-05 2.86419
0.705 0.01 -0.0142824 -0.000364854 -3.72321e-05 2.73477
0.71 0.01 -0.0135963 -0.000362577 -3.54125e-05 2.60605
0.715 0.01 -0.0129152 -0.000359504 -3.36063e-05 2.47828
0.72 0.01 -0.0122407 -0.000355652 -3.18175e-05 2.35172
0.725 0.01 -0.011574 -0.000351043 -3.00498e-05 2.22663
0.73 0.01 -0.0109167 -0.000345703 -2.83071e-05 2.10324
0.735 0.01 -0.0102698 -0.000339661 -2.65928e-05 1.98179
0.74 0.01 -0.00963484 -0.000332946 -2.49105e-05 1.86251
0.745 0.01 -0.00901286 -0.000325594 -2.32634e-05 1.74561
0.75 0.01 -0.00840502 -0.00031764 -2.16546e-05 1.63129
0.755 0.01 -0.0078124 -0.000309125 -2.0087e-05 1.51976
0.76 0.01 -0.00723599 -0.000300088 -1.85633e-05 1.41119
0.765 0.01 -0.00667672 -0.000290573 -1.70861e-05 1.30575
0.77 0.01 -0.00613542 -0.000280624 -1.56576e-05 1.20359
0.775 0.01 -0.00561288 -0.000270286 -1.42799e-05 1.10486
0.78 0.01 -0.00510976 -0.000259606 -1.29548e-05 1.00969
0.785 0.01 -0.00462667 -0.000248632 -1.16838e-05 0.918184
0.79 0.01 -0.00416413 -0.000237411 -1.04685e-05 0.830444
0.795 0.01 -0.00372257 -0.000225991 -9.30973e-06 0.746552
0.8 0.01 -0.00330233 -0.000214418 -8.20855e-06 0.666576
0.805 0.01 -0.00290367 -0.00020274 -7.16555e-06 0.590569
0.81 0.01 -0.00252678 -0.000191002 -6.18115e-06 0.51857
0.815 0.01 -0.00217173 -0.00017925 -5.25553e-06 0.4506
0.82 0.01 -0.00183856 -0.000167526 -4.38865e-06 0.386671
0.825 0.01 -0.00152719 -0.000155872 -3.58027e-06 0.326776
0.83 0.01 -0.00123749 -0.000144328 -2.82993e-06 0.270897
0.835 0.01 -0.000969246 -0.000132931 -2.13698e-06 0.219003
0.84 0.01 -0.000722187 -0.000121717 -1.50061e-06 0.171049
0.845 0.01 -0.000495968 -0.000110719 -9.19805e-07 0.126979
0.85 0.01 -0.000290189 -9.99669e-05 -3.93413e-07 0.0867267
0.855 0.01 -0.000104394 -8.9489e-05 7.98725e-08 0.0502141
0.86 0.01 6.19237e-05 -7.93101e-05 5.01486e-07 0.0173538
0.865 0.01 0.000209318 -6.9453e-05 8.72983e-07 -0.0119504
0.87 0.01 0.000338383 -5.99374e-05 1.19602e-06 -0.0378034
0.875 0.01 0.000449752 -5.0781e-05 1.47237e-06 -0.0603173
0.88 0.01 0.000544092 -4.19987e-05 1.70384e-06 -0.0796111
0.885 0.01 0.000622097 -3.36037e-05 1.89236e-06 -0.0958102
0.89 0.01 0.000684489 -2.56069e-05 2.03989e-06 -0.109046
0.895 0.01 0.000732013 -1.8018e-05 2.14844e-06 -0.119454
0.9 0.01 0.000765435 -1.08457e-05 2.22008e-06 -0.127176
0.905 0.01 0.00078554 -4.09779e-06 2.2569e-06 -0.132357
0.91 0.01 0.000793134 2.21749e-06 2.26106e-06 -0.135149
0.915 0.01 0.00078904 8.09121e-06 2.23474e-06 -0.135707
0.92 0.01 0.000774107 1.35127e-05 2.18016e-06 -0.134192
0.925 0.01 0.00074921 1.84683e-05 2.09962e-06 -0.130771
0.93 0.01 0.000715257 2.29402e-05 1.99548e-06 -0.125619
0.935 0.01 0.000673194 2.69051e-05 1.87022e-06 -0.118919
0.94 0.01 0.000624025 3.03318e-05 1.72643e-06 -0.110866
0.945 0.01 0.000568818 3.31792e-05 1.5669e-06 -0.101666
0.95 0.01 0.000508725 3.53935e-05 1.39465e-06 -0.091542
0.955 0.01 0.000445008 3.69049e-05 1.21297e-06 -0.0807375
0.96 0.01 0.000379062 3.76232e-05 1.0256e-06 -0.0695178
0.965 0.01 0.000312448 3.74337e-05 8.36742e-07 -0.058175
0.97 0.01 0.000246924 3.61917e-05 6.51263e-07 -0.0470302
0.975 0.01 0.000184481 3.37202e-05 4.74826e-07 -0.0364334
0.98 0.01 0.000127364 2.9815e-05 3.14061e-07 -0.0267558
0.985 0.01 7.80485e-05 2.42772e-05 1.76676e-07 -0.0183653
0.99 0.01 3.91267e-05 1.70307e-05 7.12894e-08 -0.0115662
0.995 0.01 1.29384e-05 8.4894e-06 6.36934e-09 -0.00646366
1 0.01 6.37062e-07 6.36934e-07 -1.36046e-08 -0.00268634
0 0.015 0 0 -0.000509649 0
0.005 0.015 0 0 0 -255.962
0.01 0.015 -0.152864 0.184875 -0.00180048 -79.2529
0.015 0.015 -0.206263 -0.023638 -0.00184875 -16.6381
0.02 0.015 -0.204621 -0.0572953 -0.0015641 2.30876
0.025 0.015 -0.184605 -0.0522449 -0.0012758 7.91642
0.03 0.015 -0.161075 -0.0416653 -0.00104165 9.23798
0.035 0.015 -0.13902 -0.0325274 -0.000859149 9.10371
0.04 0.015 -0.119731 -0.0256208 -0.000716378 8.4807
0.045 0.015 -0.103249 -0.0205055 -0.000602941 7.72198
0.05 0.015 -0.0892575 -0.0166636 -0.000511323 6.96083
0.055 0.015 -0.0773864 -0.0137085 -0.000436305 6.24708
0.06 0.015 -0.0673004 -0.0113801 -0.000374238 5.5975
0.065 0.015 -0.0587181 -0.00950727 -0.000322504 5.01537
0.07 0.015 -0.0514076 -0.00797607 -0.000279165 4.49847
0.075 0.015 -0.0451776 -0.00670874 -0.000242743 4.04242
0.08 0.015 -0.0398694 -0.00565036 -0.000212078 3.64208
0.085 0.015 -0.03535 -0.00476071 -0.00018624 3.29222
0.09 0.015 -0.0315073 -0.00400937 -0.000164471 2.9878
0.095 0.015 -0.0282459 -0.00337263 -0.000146146 2.72409
0.1 0.015 -0.0254848 -0.00283156 -0.000130744 2.49671
0.105 0.015 -0.0231545 -0.00237077 -0.00011783 2.30168
0.11 0.015 -0.0211959 -0.00197756 -0.000107037 2.13539
0.115 0.015 -0.019558 -0.00164137 -9.80545e-05 1.99459
0.12 0.015 -0.0181974 -0.00135332 -9.06229e-05 1.87639
0.125 0.015 -0.0170769 -0.00110595 -8.45212e-05 1.7782
0.13 0.015 -0.0161648 -0.000892967 -7.95633e-05 1.69775
0.135 0.015 -0.0154338 -0.000709023 -7.55915e-05 1.63302
0.14 0.015 -0.0148607 -0.000549607 -7.2473e-05 1.58223
0.145 0.015 -0.0144259 -0.000410893 -7.00954e-05 1.54385
0.15 0.015 -0.0141124 -0.000289645 -6.8364e-05 1.51652
0.155 0.015 -0.013906 -0.00018312 -6.71989e-05 1.49905
0.16 0.015 -0.0137944 -8.90026e-05 -6.65328e-05 1.49043
0.165 0.015 -0.0137674 -5.33604e-06 -6.63088e-05 1.48976
0.17 0.015 -0.0138161 6.95295e-05 -6.64793e-05 1.49628
0.175 0.015 -0.013933 0.000136983 -6.70041e-05 1.5093
0.18 0.015 -0.0141119 0.000198189 -6.78491e-05 1.52825
0.185 0.015 -0.0143473 0.000254127 -6.89859e-05 1.55263
0.19 0.015 -0.0146346 0.000305611 -7.03904e-05 1.582
0.195 0.015 -0.0149699 0.000353321 -7.2042e-05 1.61597
0.2 0.015 -0.0153499 0.000397821 -7.39235e-05 1.65422
0.205 0.015 -0.0157716 0.000439574 -7.60202e-05 1.69644
0.21 0.015 -0.0162325 0.000478962 -7.83192e-05 1.74238
0.215 0.015 -0.0167304 0.000516296 -8.08098e-05 1.79182
0.22 0.015 -0.0172634 0.000551827 -8.34822e-05 1.84453
0.225 0.015 -0.0178297 0.000585756 -8.6328e-05 1.90034
0.23 0.015 -0.0184279 0.000618242 -8.93397e-05 1.95906
0.235 0.015 -0.0190564 0.000649408 -9.25104e-05 2.02055
0.24 0.015 -0.0197139 0.000679347 -9.58338e-05 2.08465
0.245 0.015 -0.0203992 0.000708126 -9.93039e-05 2.15122
0.25 0.015 -0.021111 0.000735792 -0.000102915 2.22013
0.255 0.015 -0.0218483 0.000762374 -0.000106662 2.29123
0.26 0.015 -0.0226098 0.000787886 -0.000110539 2.3644
0.265 0.015 -0.0233945 0.000812329 -0.000114541 2.43952
0.27 0.015 -0.0242012 0.000835694 -0.000118662 2.51645
0.275 0.015 -0.0250287 0.000857963 -0.000122898 2.59506
0.28 0.015 -0.0258759 0.000879111 -0.000127242 2.67524
0.285 0.015 -0.0267416 0.000899106 -0.000131689 2.75684
0.29 0.015 -0.0276246 0.000917913 -0.000136233 2.83973
0.295 0.015 -0.0285236 0.000935491 -0.000140868 2.92378
0.3 0.015 -0.0294373 0.000951797 -0.000145588 3.00885
0.305 0.015 -0.0303645 0.000966787 -0.000150386 3.09481
0.31 0.015 -0.0313036 0.000980412 -0.000155256 3.1815
0.315 0.015 -0.0322535 0.000992625 -0.00016019 3.2688
0.32 0.015 -0.0332124 0.00100338 -0.000165182 3.35654
0.325 0.015 -0.0341791 0.00101262 -0.000170224 3.44458
0.33 0.015 -0.035152 0.00102031 -0.000175308 3.53276
0.335 0.015 -0.0361294 0.00102639 -0.000180427 3.62094
0.34 0.015 -0.0371098 0.00103082 -0.000185572 3.70895
0.345 0.015 -0.0380916 0.00103355 -0.000190735 3.79665
0.35 0.015 -0.039073 0.00103455 -0.000195908 3.88386
0.355 0.015 -0.0400523 0.00103378 -0.000201081 3.97043
0.36 0.015 -0.0410279 0.00103118 -0.000206245 4.05619
0.365 0.015 -0.0419979 0.00102674 -0.000211393 4.14099
0.37 0.015 -0.0429606 0.00102042 -0.000216513 4.22466
0.375 0.015 -0.0439141 0.0010122 -0.000221597 4.30704
0.38 0.015 -0.0448567 0.00100204 -0.000226635 4.38796
0.385 0.015 -0.0457864 0.000989932 -0.000231617 4.46727
0.39 0.015 -0.0467015 0.000975856 -0.000236534 4.5448
0.395 0.015 -0.0476 0.000959799 -0.000241376 4.6204
0.4 0.015 -0.0484802 0.000941755 -0.000246133 4.69391
0.405 0.015 -0.0493402 0.000921719 -0.000250794 4.76517
0.41 0.015 -0.0501782 0.000899693 -0.00025535 4.83403
0.415 0.015 -0.0509923 0.000875683 -0.000259791 4.90034
0.42 0.015 -0.0517807 0.000849699 -0.000264107 4.96395
0.425 0.015 -0.0525416 0.000821757 -0.000268288 5.02473
0.43 0.015 -0.0532733 0.000791877 -0.000272325 5.08252
0.435 0.015 -0.053974 0.000760086 -0.000276207 5.13721
0.44 0.015 -0.054642 0.000726412 -0.000279926 5.18865
0.445 0.015 -0.0552757 0.000690893 -0.000283471 5.23673
0.45 0.015 -0.0558734 0.000653569 -0.000286835 5.28132
0.455 0.015 -0.0564336 0.000614486 -0.000290007 5.32231
0.46 0.015 -0.0569547 0.000573696 -0.00029298 5.35959
0.465 0.015 -0.0574353 0.000531255 -0.000295744 5.39305
0.47 0.015 -0.057874 0.000487225 -0.000298292 5.42261
0.475 0.015 -0.0582695 0.000441673 -0.000300617 5.44818
0.48 0.015 -0.0586204 0.000394671 -0.000302709 5.46966
0.485 0.015 -0.0589256 0.000346297 -0.000304564 5.48699
0.49 0.015 -0.059184 0.000296633 -0.000306173 5.5001
0.495 0.015 -0.0593946 0.000245767 -0.00030753 5.50893
0.5 0.015 -0.0595563 0.000193792 -0.00030863 5.51342
0.505 0.015 -0.0596684 0.000140805 -0.000309468 5.51354
0.51 0.015 -0.0597301 8.69085e-05 -0.000310039 5.50925
0.515 0.015 -0.0597407 3.22097e-05 -0.000310338 5.50052
0.52 0.015 -0.0596996 -2.31801e-05 -0.000310361 5.48733
0.525 0.015 -0.0596065 -7.91449e-05 -0.000310106 5.46968
0.53 0.015 -0.0594609 -0.000135565 -0.00030957 5.44756
0.535 0.015 -0.0592626 -0.000192316 -0.000308751 5.42098
0.54 0.015 -0.0590116 -0.000249271 -0.000307647 5.38995
0.545 0.015 -0.0587078 -0.000306298 -0.000306258 5.35451
0.55 0.015 -0.0583513 -0.000363264 -0.000304584 5.31469
0.555 0.015 -0.0579423 -0.000420032 -0.000302626 5.27054
0.56 0.015 -0.0574812 -0.000476462 -0.000300384 5.2221
0.565 0.015 -0.0569686 -0.000532414 -0.000297861 5.16945
0.57 0.015 -0.056405 -0.000587745 -0.00029506 5.11265
0.575 0.015 -0.0557911 -0.00064231 -0.000291984 5.05178
0.58 0.015 -0.0551278 -0.000695966 -0.000288637 4.98694
0.585 0.015 -0.0544161 -0.000748567 -0.000285025 4.91823
0.59 0.015 -0.0536572 -0.000799969 -0.000281152 4.84575
0.595 0.015 -0.0528522 -0.00085003 -0.000277025 4.76963
0.6 0.015 -0.0520025 -0.000898608 -0.000272652 4.68998
0.605 0.015 -0.0511095 -0.000945562 -0.00026804 4.60693
0.61 0.015 -0.050175 -0.000990758 -0.000263197 4.52065
0.615 0.015 -0.0492007 -0.00103406 -0.000258132 4.43126
0.62 0.015 -0.0481882 -0.00107534 -0.000252856 4.33893
0.625 0.015 -0.0471397 -0.00111448 -0.000247379 4.24382
0.63 0.015 -0.0460571 -0.00115135 -0.000241712 4.1461
0.635 0.015 -0.0449425 -0.00118584 -0.000235866 4.04596
0.64 0.015 -0.0437983 -0.00121785 -0.000229854 3.94356
0.645 0.015 -0.0426267 -0.00124728 -0.000223688 3.8391
0.65 0.015 -0.0414301 -0.00127403 -0.000217381 3.73278
0.655 0.015 -0.040211 -0.00129803 -0.000210948 3.62478
0.66 0.015 -0.0389719 -0.00131921 -0.000204401 3.51532
0.665 0.015 -0.0377155 -0.0013375 -0.000197756 3.40459
0.67 0.015 -0.0364443 -0.00135285 -0.000191026 3.29281
0.675 0.015 -0.0351611 -0.00136521 -0.000184227 3.18019
0.68 0.015 -0.0338685 -0.00137456 -0.000177374 3.06693
0.685 0.015 -0.0325694 -0.00138088 -0.000170482 2.95325
0.69 0.015 -0.0312663 -0.00138417 -0.000163566 2.83936
0.695 0.015 -0.0299621 -0.00138442 -0.00015664 2.72548
0.7 0.015 -0.0286595 -0.00138165 -0.000149722 2.61181
0.705 0.015 -0.0273612 -0.0013759 -0.000142824 2.49857
0.71 0.015 -0.0260699 -0.0013672 -0.000135963 2.38597
0.715 0.015 -0.0247882 -0.00135561 -0.000129152 2.27421
0.72 0.015 -0.0235187 -0.00134119 -0.000122407 2.16349
0.725 0.015 -0.0222639 -0.00132403 -0.00011574 2.054
0.73 0.015 -0.0210262 -0.00130421 -0.000109167 1.94595
0.735 0.015 -0.0198081 -0.00128183 -0.000102699 1.83951
0.74 0.015 -0.0186118 -0.00125699 -9.63485e-05 1.73487
0.745 0.015 -0.0174394 -0.00122983 -9.01287e-05 1.63219
0.75 0.015 -0.0162931 -0.00120047 -8.40503e-05 1.53165
0.755 0.015 -0.0151747 -0.00116904 -7.81241e-05 1.4334
0.76 0.015 -0.0140862 -0.00113569 -7.236e-05 1.3376
0.765 0.015 -0.0130292 -0.00110057 -6.67672e-05 1.24436
0.77 0.015 -0.0120052 -0.00106385 -6.13543e-05 1.15384
0.775 0.015 -0.0110157 -0.00102567 -5.61288e-05 1.06615
0.78 0.015 -0.010062 -0.000986206 -5.10976e-05 0.981394
0.785 0.015 -0.00914522 -0.000945628 -4.62668e-05 0.899675
0.79 0.015 -0.0082663 -0.000904104 -4.16414e-05 0.82108
0.795 0.015 -0.00742609 -0.000861805 -3.72257e-05 0.745686
0.8 0.015 -0.00662527 -0.000818899 -3.30233e-05 0.673558
0.805 0.015 -0.00586435 -0.000775556 -2.90367e-05 0.604751
0.81 0.015 -0.00514373 -0.000731942 -2.52677e-05 0.539305
0.815 0.015 -0.00446362 -0.000688218 -2.17173e-05 0.477253
0.82 0.015 -0.00382411 -0.000644542 -1.83856e-05 0.418614
0.825 0.015 -0.00322514 -0.000601068 -1.52719e-05 0.363396
0.83 0.015 -0.00266652 -0.000557941 -1.23749e-05 0.311596
0.835 0.015 -0.00214791 -0.000515299 -9.69244e-06 0.263202