Title=" Lid Driven Flow"
VARIABLES="X","Y","U","V","psi","xi"
ZONE T= "BOX", I= 201, J=201, F=POINT
0 0 0 0 0.0034515 0
0.005 0 0 0 0 0
0.01 0 0 0 0 0
0.015 0 0 0 0 161.891
0.02 0 0 0 0 176.121
0.025 0 0 0 0 155.598
0.03 0 0 0 0 133.203
0.035 0 0 0 0 115.678
0.04 0 0 0 0 102.82
0.045 0 0 0 0 93.2853
0.05 0 0 0 0 85.9625
0.055 0 0 0 0 80.1193
0.06 0 0 0 0 75.2971
0.065 0 0 0 0 71.2069
0.07 0 0 0 0 67.661
0.075 0 0 0 0 64.5327
0.08 0 0 0 0 61.7335
0.085 0 0 0 0 59.1999
0.09 0 0 0 0 56.8849
0.095 0 0 0 0 54.7533
0.1 0 0 0 0 52.7779
0.105 0 0 0 0 50.9378
0.11 0 0 0 0 49.2162
0.115 0 0 0 0 47.5997
0.12 0 0 0 0 46.0772
0.125 0 0 0 0 44.6398
0.13 0 0 0 0 43.2798
0.135 0 0 0 0 41.9907
0.14 0 0 0 0 40.7668
0.145 0 0 0 0 39.6033
0.15 0 0 0 0 38.4958
0.155 0 0 0 0 37.4403
0.16 0 0 0 0 36.4335
0.165 0 0 0 0 35.4719
0.17 0 0 0 0 34.5529
0.175 0 0 0 0 33.6735
0.18 0 0 0 0 32.8313
0.185 0 0 0 0 32.0239
0.19 0 0 0 0 31.2491
0.195 0 0 0 0 30.5048
0.2 0 0 0 0 29.7892
0.205 0 0 0 0 29.1003
0.21 0 0 0 0 28.4364
0.215 0 0 0 0 27.796
0.22 0 0 0 0 27.1774
0.225 0 0 0 0 26.5792
0.23 0 0 0 0 26
0.235 0 0 0 0 25.4385
0.24 0 0 0 0 24.8936
0.245 0 0 0 0 24.3639
0.25 0 0 0 0 23.8485
0.255 0 0 0 0 23.3463
0.26 0 0 0 0 22.8564
0.265 0 0 0 0 22.3777
0.27 0 0 0 0 21.9096
0.275 0 0 0 0 21.4511
0.28 0 0 0 0 21.0015
0.285 0 0 0 0 20.5602
0.29 0 0 0 0 20.1264
0.295 0 0 0 0 19.6995
0.3 0 0 0 0 19.279
0.305 0 0 0 0 18.8644
0.31 0 0 0 0 18.4552
0.315 0 0 0 0 18.051
0.32 0 0 0 0 17.6512
0.325 0 0 0 0 17.2557
0.33 0 0 0 0 16.8639
0.335 0 0 0 0 16.4758
0.34 0 0 0 0 16.0909
0.345 0 0 0 0 15.709
0.35 0 0 0 0 15.33
0.355 0 0 0 0 14.9537
0.36 0 0 0 0 14.5799
0.365 0 0 0 0 14.2085
0.37 0 0 0 0 13.8395
0.375 0 0 0 0 13.4727
0.38 0 0 0 0 13.1081
0.385 0 0 0 0 12.7458
0.39 0 0 0 0 12.3857
0.395 0 0 0 0 12.0278
0.4 0 0 0 0 11.6723
0.405 0 0 0 0 11.3191
0.41 0 0 0 0 10.9684
0.415 0 0 0 0 10.6203
0.42 0 0 0 0 10.2749
0.425 0 0 0 0 9.93224
0.43 0 0 0 0 9.5926
0.435 0 0 0 0 9.2561
0.44 0 0 0 0 8.92291
0.445 0 0 0 0 8.59321
0.45 0 0 0 0 8.26719
0.455 0 0 0 0 7.94505
0.46 0 0 0 0 7.627
0.465 0 0 0 0 7.31323
0.47 0 0 0 0 7.00395
0.475 0 0 0 0 6.69939
0.48 0 0 0 0 6.39973
0.485 0 0 0 0 6.1052
0.49 0 0 0 0 5.81599
0.495 0 0 0 0 5.53231
0.5 0 0 0 0 5.25434
0.505 0 0 0 0 4.98226
0.51 0 0 0 0 4.71627
0.515 0 0 0 0 4.45651
0.52 0 0 0 0 4.20315
0.525 0 0 0 0 3.95632
0.53 0 0 0 0 3.71616
0.535 0 0 0 0 3.48279
0.54 0 0 0 0 3.25629
0.545 0 0 0 0 3.03677
0.55 0 0 0 0 2.82429
0.555 0 0 0 0 2.6189
0.56 0 0 0 0 2.42064
0.565 0 0 0 0 2.22953
0.57 0 0 0 0 2.04558
0.575 0 0 0 0 1.86878
0.58 0 0 0 0 1.6991
0.585 0 0 0 0 1.5365
0.59 0 0 0 0 1.38091
0.595 0 0 0 0 1.23227
0.6 0 0 0 0 1.09049
0.605 0 0 0 0 0.955473
0.61 0 0 0 0 0.827103
0.615 0 0 0 0 0.705256
0.62 0 0 0 0 0.589798
0.625 0 0 0 0 0.480585
0.63 0 0 0 0 0.377464
0.635 0 0 0 0 0.280273
0.64 0 0 0 0 0.188845
0.645 0 0 0 0 0.103006
0.65 0 0 0 0 0.0225757
0.655 0 0 0 0 -0.0526276
0.66 0 0 0 0 -0.122791
0.665 0 0 0 0 -0.188102
0.67 0 0 0 0 -0.248752
0.675 0 0 0 0 -0.304934
0.68 0 0 0 0 -0.356839
0.685 0 0 0 0 -0.40466
0.69 0 0 0 0 -0.448591
0.695 0 0 0 0 -0.488823
0.7 0 0 0 0 -0.525548
0.705 0 0 0 0 -0.558956
0.71 0 0 0 0 -0.589238
0.715 0 0 0 0 -0.616581
0.72 0 0 0 0 -0.641172
0.725 0 0 0 0 -0.663193
0.73 0 0 0 0 -0.682827
0.735 0 0 0 0 -0.700251
0.74 0 0 0 0 -0.715638
0.745 0 0 0 0 -0.729154
0.75 0 0 0 0 -0.740962
0.755 0 0 0 0 -0.751215
0.76 0 0 0 0 -0.760056
0.765 0 0 0 0 -0.767618
0.77 0 0 0 0 -0.774023
0.775 0 0 0 0 -0.779379
0.78 0 0 0 0 -0.783778
0.785 0 0 0 0 -0.787296
0.79 0 0 0 0 -0.789993
0.795 0 0 0 0 -0.791912
0.8 0 0 0 0 -0.793074
0.805 0 0 0 0 -0.793486
0.81 0 0 0 0 -0.793132
0.815 0 0 0 0 -0.791982
0.82 0 0 0 0 -0.789988
0.825 0 0 0 0 -0.787085
0.83 0 0 0 0 -0.783194
0.835 0 0 0 0 -0.778227
0.84 0 0 0 0 -0.772082
0.845 0 0 0 0 -0.764652
0.85 0 0 0 0 -0.755828
0.855 0 0 0 0 -0.745496
0.86 0 0 0 0 -0.733547
0.865 0 0 0 0 -0.719877
0.87 0 0 0 0 -0.704392
0.875 0 0 0 0 -0.68701
0.88 0 0 0 0 -0.667667
0.885 0 0 0 0 -0.646317
0.89 0 0 0 0 -0.622939
0.895 0 0 0 0 -0.59754
0.9 0 0 0 0 -0.570156
0.905 0 0 0 0 -0.540854
0.91 0 0 0 0 -0.509739
0.915 0 0 0 0 -0.47695
0.92 0 0 0 0 -0.442668
0.925 0 0 0 0 -0.407112
0.93 0 0 0 0 -0.370543
0.935 0 0 0 0 -0.333266
0.94 0 0 0 0 -0.295624
0.945 0 0 0 0 -0.258005
0.95 0 0 0 0 -0.220839
0.955 0 0 0 0 -0.184598
0.96 0 0 0 0 -0.149793
0.965 0 0 0 0 -0.116977
0.97 0 0 0 0 -0.0867435
0.975 0 0 0 0 -0.0597189
0.98 0 0 0 0 -0.0365575
0.985 0 0 0 0 -0.0179192
0.99 0 0 0 0 -0.00442129
0.995 0 0 0 0 0.00347879
1 0 0 0 0 0.00575694
0 0.005 0 0 0 0
0.005 0.005 0 0 0 0
0.01 0.005 0 0 0 73.7283
0.015 0.005 0 0 0 62.0751
0.02 0.005 0 0 0 45.7363
0.025 0.005 0 0 0 33.9752
0.03 0.005 0 0 0 26.0767
0.035 0.005 0 0 0 20.6401
0.04 0.005 0 0 0 16.7254
0.045 0.005 0 0 0 13.7833
0.05 0.005 0 0 0 11.4959
0.055 0.005 0 0 0 9.67322
0.06 0.005 0 0 0 8.19556
0.065 0.005 0 0 0 6.98351
0.07 0.005 0 0 0 5.98153
0.075 0.005 0 0 0 5.14897
0.08 0.005 0 0 0 4.45499
0.085 0.005 0 0 0 3.87548
0.09 0.005 0 0 0 3.39123
0.095 0.005 0 0 0 2.98664
0.1 0.005 0 0 0 2.64893
0.105 0.005 0 0 0 2.36755
0.11 0.005 0 0 0 2.13373
0.115 0.005 0 0 0 1.94016
0.12 0.005 0 0 0 1.78074
0.125 0.005 0 0 0 1.65037
0.13 0.005 0 0 0 1.54477
0.135 0.005 0 0 0 1.46037
0.14 0.005 0 0 0 1.39418
0.145 0.005 0 0 0 1.34369
0.15 0.005 0 0 0 1.3068
0.155 0.005 0 0 0 1.28176
0.16 0.005 0 0 0 1.26711
0.165 0.005 0 0 0 1.26161
0.17 0.005 0 0 0 1.26426
0.175 0.005 0 0 0 1.27418
0.18 0.005 0 0 0 1.29068
0.185 0.005 0 0 0 1.31315
0.19 0.005 0 0 0 1.3411
0.195 0.005 0 0 0 1.37411
0.2 0.005 0 0 0 1.41183
0.205 0.005 0 0 0 1.45396
0.21 0.005 0 0 0 1.50026
0.215 0.005 0 0 0 1.5505
0.22 0.005 0 0 0 1.60451
0.225 0.005 0 0 0 1.66213
0.23 0.005 0 0 0 1.7232
0.235 0.005 0 0 0 1.78761
0.24 0.005 0 0 0 1.85523
0.245 0.005 0 0 0 1.92595
0.25 0.005 0 0 0 1.99967
0.255 0.005 0 0 0 2.0763
0.26 0.005 0 0 0 2.15572
0.265 0.005 0 0 0 2.23784
0.27 0.005 0 0 0 2.32257
0.275 0.005 0 0 0 2.4098
0.28 0.005 0 0 0 2.49942
0.285 0.005 0 0 0 2.59134
0.29 0.005 0 0 0 2.68544
0.295 0.005 0 0 0 2.7816
0.3 0.005 0 0 0 2.8797
0.305 0.005 0 0 0 2.97963
0.31 0.005 0 0 0 3.08124
0.315 0.005 0 0 0 3.1844
0.32 0.005 0 0 0 3.28897
0.325 0.005 0 0 0 3.39481
0.33 0.005 0 0 0 3.50175
0.335 0.005 0 0 0 3.60964
0.34 0.005 0 0 0 3.71832
0.345 0.005 0 0 0 3.82761
0.35 0.005 0 0 0 3.93735
0.355 0.005 0 0 0 4.04734
0.36 0.005 0 0 0 4.1574
0.365 0.005 0 0 0 4.26734
0.37 0.005 0 0 0 4.37698
0.375 0.005 0 0 0 4.4861
0.38 0.005 0 0 0 4.59451
0.385 0.005 0 0 0 4.702
0.39 0.005 0 0 0 4.80837
0.395 0.005 0 0 0 4.91339
0.4 0.005 0 0 0 5.01687
0.405 0.005 0 0 0 5.11858
0.41 0.005 0 0 0 5.21831
0.415 0.005 0 0 0 5.31584
0.42 0.005 0 0 0 5.41095
0.425 0.005 0 0 0 5.50344
0.43 0.005 0 0 0 5.59308
0.435 0.005 0 0 0 5.67966
0.44 0.005 0 0 0 5.76297
0.445 0.005 0 0 0 5.84279
0.45 0.005 0 0 0 5.91894
0.455 0.005 0 0 0 5.99119
0.46 0.005 0 0 0 6.05935
0.465 0.005 0 0 0 6.12324
0.47 0.005 0 0 0 6.18266
0.475 0.005 0 0 0 6.23743
0.48 0.005 0 0 0 6.28738
0.485 0.005 0 0 0 6.33235
0.49 0.005 0 0 0 6.37216
0.495 0.005 0 0 0 6.40668
0.5 0.005 0 0 0 6.43576
0.505 0.005 0 0 0 6.45927
0.51 0.005 0 0 0 6.47709
0.515 0.005 0 0 0 6.48911
0.52 0.005 0 0 0 6.49524
0.525 0.005 0 0 0 6.49538
0.53 0.005 0 0 0 6.48947
0.535 0.005 0 0 0 6.47744
0.54 0.005 0 0 0 6.45925
0.545 0.005 0 0 0 6.43487
0.55 0.005 0 0 0 6.40428
0.555 0.005 0 0 0 6.36747
0.56 0.005 0 0 0 6.32447
0.565 0.005 0 0 0 6.2753
0.57 0.005 0 0 0 6.22001
0.575 0.005 0 0 0 6.15866
0.58 0.005 0 0 0 6.09132
0.585 0.005 0 0 0 6.0181
0.59 0.005 0 0 0 5.9391
0.595 0.005 0 0 0 5.85445
0.6 0.005 0 0 0 5.76429
0.605 0.005 0 0 0 5.66879
0.61 0.005 0 0 0 5.56813
0.615 0.005 0 0 0 5.46249
0.62 0.005 0 0 0 5.35209
0.625 0.005 0 0 0 5.23714
0.63 0.005 0 0 0 5.11789
0.635 0.005 0 0 0 4.99459
0.64 0.005 0 0 0 4.8675
0.645 0.005 0 0 0 4.73691
0.65 0.005 0 0 0 4.60309
0.655 0.005 0 0 0 4.46635
0.66 0.005 0 0 0 4.327
0.665 0.005 0 0 0 4.18535
0.67 0.005 0 0 0 4.04172
0.675 0.005 0 0 0 3.89646
0.68 0.005 0 0 0 3.74989
0.685 0.005 0 0 0 3.60235
0.69 0.005 0 0 0 3.45418
0.695 0.005 0 0 0 3.30573
0.7 0.005 0 0 0 3.15732
0.705 0.005 0 0 0 3.00931
0.71 0.005 0 0 0 2.86202
0.715 0.005 0 0 0 2.71578
0.72 0.005 0 0 0 2.57091
0.725 0.005 0 0 0 2.42773
0.73 0.005 0 0 0 2.28655
0.735 0.005 0 0 0 2.14765
0.74 0.005 0 0 0 2.01132
0.745 0.005 0 0 0 1.87782
0.75 0.005 0 0 0 1.74742
0.755 0.005 0 0 0 1.62035
0.76 0.005 0 0 0 1.49683
0.765 0.005 0 0 0 1.37706
0.77 0.005 0 0 0 1.26125
0.775 0.005 0 0 0 1.14955
0.78 0.005 0 0 0 1.04212
0.785 0.005 0 0 0 0.939088
0.79 0.005 0 0 0 0.840567
0.795 0.005 0 0 0 0.74665
0.8 0.005 0 0 0 0.65741
0.805 0.005 0 0 0 0.5729
0.81 0.005 0 0 0 0.493156
0.815 0.005 0 0 0 0.418194
0.82 0.005 0 0 0 0.348011
0.825 0.005 0 0 0 0.282589
0.83 0.005 0 0 0 0.221891
0.835 0.005 0 0 0 0.165865
0.84 0.005 0 0 0 0.114443
0.845 0.005 0 0 0 0.0675444
0.85 0.005 0 0 0 0.0250748
0.855 0.005 0 0 0 -0.0130726
0.86 0.005 0 0 0 -0.047015
0.865 0.005 0 0 0 -0.0768797
0.87 0.005 0 0 0 -0.102803
0.875 0.005 0 0 0 -0.124928
0.88 0.005 0 0 0 -0.143405
0.885 0.005 0 0 0 -0.158391
0.89 0.005 0 0 0 -0.170046
0.895 0.005 0 0 0 -0.178536
0.9 0.005 0 0 0 -0.18403
0.905 0.005 0 0 0 -0.1867
0.91 0.005 0 0 0 -0.186722
0.915 0.005 0 0 0 -0.184274
0.92 0.005 0 0 0 -0.179539
0.925 0.005 0 0 0 -0.172705
0.93 0.005 0 0 0 -0.163965
0.935 0.005 0 0 0 -0.153521
0.94 0.005 0 0 0 -0.141586
0.945 0.005 0 0 0 -0.128388
0.95 0.005 0 0 0 -0.114173
0.955 0.005 0 0 0 -0.0992118
0.96 0.005 0 0 0 -0.083808
0.965 0.005 0 0 0 -0.0683061
0.97 0.005 0 0 0 -0.0531032
0.975 0.005 0 0 0 -0.0386616
0.98 0.005 0 0 0 -0.0255221
0.985 0.005 0 0 0 -0.0143122
0.99 0.005 0 0 0 -0.00573249
0.995 0.005 0 0 0 -0.000467854
1 0.005 0 0 0 0.00112757
0 0.01 0 0 0.00112757 0
0.005 0.01 0 0 0 -326.272
0.01 0.01 -0.180049 0.0775938 -0.000921604 -44.3995
0.015 0.01 -0.184879 -0.03499 -0.000775938 9.53385
0.02 0.01 -0.156417 -0.0351248 -0.000571704 19.1193
0.025 0.01 -0.127588 -0.0245745 -0.00042469 18.9914
0.03 0.01 -0.104172 -0.0166689 -0.000325959 16.823
0.035 0.01 -0.0859174 -0.0116891 -0.000258001 14.4879
0.04 0.01 -0.0716341 -0.00857096 -0.000209067 12.4145
0.045 0.01 -0.0602829 -0.00653681 -0.000172291 10.6572
0.05 0.01 -0.051113 -0.00513759 -0.000143699 9.18156
0.055 0.01 -0.0436031 -0.00412548 -0.000120915 7.94055
0.06 0.01 -0.0373888 -0.00336214 -0.000102444 6.89278
0.065 0.01 -0.0322086 -0.00276753 -8.72939e-05 6.00496
0.07 0.01 -0.0278689 -0.00229317 -7.47691e-05 5.25072
0.075 0.01 -0.0242218 -0.00190818 -6.43621e-05 4.60903
0.08 0.01 -0.0211514 -0.00159186 -5.56873e-05 4.0628
0.085 0.01 -0.0185646 -0.00132969 -4.84435e-05 3.59799
0.09 0.01 -0.0163857 -0.00111105 -4.23904e-05 3.20288
0.095 0.01 -0.0145519 -0.00092787 -3.7333e-05 2.86757
0.1 0.01 -0.0130112 -0.000773859 -3.31116e-05 2.5837
0.105 0.01 -0.0117197 -0.000644004 -2.95944e-05 2.34412
0.11 0.01 -0.0106408 -0.00053424 -2.66716e-05 2.14271
0.115 0.01 -0.00974337 -0.000441236 -2.4252e-05 1.97426
0.12 0.01 -0.00900129 -0.000362239 -2.22592e-05 1.8343
0.125 0.01 -0.00839244 -0.00029496 -2.06296e-05 1.719
0.13 0.01 -0.00789812 -0.000237491 -1.93096e-05 1.62508
0.135 0.01 -0.00750254 -0.000188234 -1.82546e-05 1.54975
0.14 0.01 -0.00719237 -0.000145852 -1.74273e-05 1.49062
0.145 0.01 -0.00695633 -0.000109223 -1.67961e-05 1.44564
0.15 0.01 -0.00678494 -7.74073e-05 -1.6335e-05 1.4131
0.155 0.01 -0.00667019 -4.96153e-05 -1.6022e-05 1.3915
0.16 0.01 -0.00660533 -2.5186e-05 -1.58389e-05 1.3796
0.165 0.01 -0.00658469 -3.56532e-06 -1.57702e-05 1.37633
0.17 0.01 -0.00660348 1.57101e-05 -1.58032e-05 1.38078
0.175 0.01 -0.00665768 3.30275e-05 -1.59273e-05 1.39218
0.18 0.01 -0.00674391 4.87098e-05 -1.61335e-05 1.40988
0.185 0.01 -0.00685932 6.30257e-05 -1.64143e-05 1.43332
0.19 0.01 -0.00700149 7.6198e-05 -1.67637e-05 1.46203
0.195 0.01 -0.00716839 8.84111e-05 -1.71763e-05 1.49561
0.2 0.01 -0.0073583 9.98169e-05 -1.76478e-05 1.5337
0.205 0.01 -0.00756975 0.00011054 -1.81745e-05 1.57603
0.21 0.01 -0.00780148 0.000120681 -1.87532e-05 1.62231
0.215 0.01 -0.0080524 0.000130324 -1.93813e-05 1.67234
0.22 0.01 -0.00832155 0.000139533 -2.00564e-05 1.72591
0.225 0.01 -0.00860811 0.000148362 -2.07766e-05 1.78284
0.23 0.01 -0.00891131 0.000156851 -2.154e-05 1.84299
0.235 0.01 -0.00923049 0.000165032 -2.23451e-05 1.90619
0.24 0.01 -0.00956501 0.000172928 -2.31903e-05 1.97233
0.245 0.01 -0.00991428 0.000180558 -2.40744e-05 2.04126
0.25 0.01 -0.0102777 0.000187931 -2.49959e-05 2.11287
0.255 0.01 -0.0106549 0.000195055 -2.59537e-05 2.18705
0.26 0.01 -0.0110451 0.000201933 -2.69465e-05 2.26368
0.265 0.01 -0.0114479 0.000208563 -2.7973e-05 2.34263
0.27 0.01 -0.0118628 0.000214943 -2.90321e-05 2.42381
0.275 0.01 -0.0122892 0.000221068 -3.01225e-05 2.5071
0.28 0.01 -0.0127266 0.000226928 -3.12428e-05 2.59237
0.285 0.01 -0.0131744 0.000232517 -3.23917e-05 2.6795
0.29 0.01 -0.013632 0.000237822 -3.35679e-05 2.76839
0.295 0.01 -0.0140988 0.000242832 -3.477e-05 2.85889
0.3 0.01 -0.0145742 0.000247536 -3.59963e-05 2.95089
0.305 0.01 -0.0150575 0.000251919 -3.72453e-05 3.04424
0.31 0.01 -0.0155482 0.000255968 -3.85155e-05 3.13881
0.315 0.01 -0.0160454 0.00025967 -3.9805e-05 3.23446
0.32 0.01 -0.0165485 0.000263009 -4.11122e-05 3.33105
0.325 0.01 -0.0170567 0.000265972 -4.24351e-05 3.42842
0.33 0.01 -0.0175692 0.000268545 -4.37719e-05 3.52642
0.335 0.01 -0.0180854 0.000270713 -4.51206e-05 3.62489
0.34 0.01 -0.0186042 0.000272462 -4.6479e-05 3.72367
0.345 0.01 -0.019125 0.000273779 -4.78452e-05 3.8226
0.35 0.01 -0.0196468 0.000274651 -4.92168e-05 3.92151
0.355 0.01 -0.0201688 0.000275065 -5.05917e-05 4.02022
0.36 0.01 -0.02069 0.000275009 -5.19675e-05 4.11856
0.365 0.01 -0.0212096 0.000274472 -5.33418e-05 4.21635
0.37 0.01 -0.0217266 0.000273444 -5.47122e-05 4.31342
0.375 0.01 -0.0222401 0.000271915 -5.60763e-05 4.40958
0.38 0.01 -0.022749 0.000269876 -5.74314e-05 4.50465
0.385 0.01 -0.0232525 0.000267319 -5.8775e-05 4.59844
0.39 0.01 -0.0237495 0.000264238 -6.01046e-05 4.69076
0.395 0.01 -0.024239 0.000260626 -6.14174e-05 4.78144
0.4 0.01 -0.0247201 0.00025648 -6.27109e-05 4.87029
0.405 0.01 -0.0251917 0.000251796 -6.39823e-05 4.95711
0.41 0.01 -0.0256528 0.000246572 -6.52289e-05 5.04172
0.415 0.01 -0.0261025 0.000240806 -6.6448e-05 5.12395
0.42 0.01 -0.0265397 0.000234499 -6.7637e-05 5.2036
0.425 0.01 -0.0269634 0.000227653 -6.8793e-05 5.2805
0.43 0.01 -0.0273727 0.000220271 -6.99135e-05 5.35447
0.435 0.01 -0.0277666 0.000212357 -7.09958e-05 5.42533
0.44 0.01 -0.0281441 0.000203917 -7.20371e-05 5.49292
0.445 0.01 -0.0285042 0.000194958 -7.3035e-05 5.55706
0.45 0.01 -0.0288462 0.000185489 -7.39867e-05 5.61759
0.455 0.01 -0.029169 0.00017552 -7.48899e-05 5.67435
0.46 0.01 -0.0294717 0.000165062 -7.5742e-05 5.72719
0.465 0.01 -0.0297536 0.00015413 -7.65405e-05 5.77597
0.47 0.01 -0.0300138 0.000142738 -7.72833e-05 5.82054
0.475 0.01 -0.0302515 0.000130901 -7.7968e-05 5.86076
0.48 0.01 -0.030466 0.000118638 -7.85923e-05 5.89651
0.485 0.01 -0.0306565 0.000105968 -7.91544e-05 5.92766
0.49 0.01 -0.0308223 9.29123e-05 -7.96521e-05 5.95411
0.495 0.01 -0.0309629 7.94927e-05 -8.00835e-05 5.97575
0.5 0.01 -0.0310776 6.57334e-05 -8.0447e-05 5.99248
0.505 0.01 -0.0311658 5.16597e-05 -8.07409e-05 6.00422
0.51 0.01 -0.0312272 3.72986e-05 -8.09637e-05 6.01089
0.515 0.01 -0.0312612 2.26784e-05 -8.1114e-05 6.01242
0.52 0.01 -0.0312675 7.82898e-06 -8.11905e-05 6.00875
0.525 0.01 -0.0312456 -7.21858e-06 -8.11923e-05 5.99985
0.53 0.01 -0.0311955 -2.24318e-05 -8.11184e-05 5.98566
0.535 0.01 -0.0311167 -3.77768e-05 -8.0968e-05 5.96618
0.54 0.01 -0.0310093 -5.32186e-05 -8.07407e-05 5.94138
0.545 0.01 -0.0308731 -6.87212e-05 -8.04359e-05 5.91126
0.55 0.01 -0.0307081 -8.42473e-05 -8.00535e-05 5.87584
0.555 0.01 -0.0305143 -9.97588e-05 -7.95935e-05 5.83513
0.56 0.01 -0.0302918 -0.000115217 -7.9056e-05 5.78918
0.565 0.01 -0.030041 -0.000130581 -7.84414e-05 5.73802
0.57 0.01 -0.0297619 -0.000145811 -7.77502e-05 5.68172
0.575 0.01 -0.029455 -0.000160867 -7.69833e-05 5.62036
0.58 0.01 -0.0291207 -0.000175706 -7.61416e-05 5.55401
0.585 0.01 -0.0287594 -0.000190288 -7.52263e-05 5.48278
0.59 0.01 -0.0283717 -0.000204571 -7.42388e-05 5.40677
0.595 0.01 -0.0279583 -0.000218512 -7.31806e-05 5.32612
0.6 0.01 -0.0275198 -0.000232072 -7.20537e-05 5.24095
0.605 0.01 -0.027057 -0.00024521 -7.086e-05 5.15141
0.61 0.01 -0.0265707 -0.000257885 -6.96017e-05 5.05767
0.615 0.01 -0.0260619 -0.000270058 -6.82812e-05 4.9599
0.62 0.01 -0.0255316 -0.000281691 -6.69011e-05 4.85827
0.625 0.01 -0.0249807 -0.000292747 -6.54643e-05 4.75298
0.63 0.01 -0.0244104 -0.000303192 -6.39737e-05 4.64424
0.635 0.01 -0.0238219 -0.00031299 -6.24324e-05 4.53226
0.64 0.01 -0.0232163 -0.000322111 -6.08439e-05 4.41727
0.645 0.01 -0.022595 -0.000330524 -5.92114e-05 4.2995
0.65 0.01 -0.0219593 -0.000338203 -5.75387e-05 4.17918
0.655 0.01 -0.0213106 -0.000345121 -5.58294e-05 4.05657
0.66 0.01 -0.0206502 -0.000351258 -5.40875e-05 3.93192
0.665 0.01 -0.0199796 -0.000356593 -5.23169e-05 3.80549
0.67 0.01 -0.0193002 -0.000361111 -5.05216e-05 3.67754
0.675 0.01 -0.0186137 -0.000364797 -4.87058e-05 3.54836
0.68 0.01 -0.0179214 -0.000367642 -4.68737e-05 3.4182
0.685 0.01 -0.017225 -0.000369638 -4.50294e-05 3.28735
0.69 0.01 -0.016526 -0.000370784 -4.31773e-05 3.15607
0.695 0.01 -0.0158259 -0.000371079 -4.13216e-05 3.02466
0.7 0.01 -0.0151262 -0.000370527 -3.94666e-05 2.89337
0.705 0.01 -0.0144286 -0.000369136 -3.76164e-05 2.76249
0.71 0.01 -0.0137344 -0.000366916 -3.57752e-05 2.63228
0.715 0.01 -0.0130453 -0.000363884 -3.39472e-05 2.50301
0.72 0.01 -0.0123625 -0.000360057 -3.21364e-05 2.37495
0.725 0.01 -0.0116877 -0.000355456 -3.03467e-05 2.24834
0.73 0.01 -0.0110221 -0.000350108 -2.85819e-05 2.12344
0.735 0.01 -0.0103671 -0.00034404 -2.68456e-05 2.00048
0.74 0.01 -0.00972401 -0.000337284 -2.51415e-05 1.8797
0.745 0.01 -0.00909399 -0.000329874 -2.34728e-05 1.76132
0.75 0.01 -0.00847825 -0.000321848 -2.18428e-05 1.64554
0.755 0.01 -0.00787786 -0.000313244 -2.02543e-05 1.53257
0.76 0.01 -0.00729385 -0.000304104 -1.87103e-05 1.42259
0.765 0.01 -0.00672718 -0.000294472 -1.72133e-05 1.31578
0.77 0.01 -0.00617871 -0.000284392 -1.57656e-05 1.21229
0.775 0.01 -0.00564923 -0.000273912 -1.43694e-05 1.11227
0.78 0.01 -0.00513945 -0.00026308 -1.30265e-05 1.01586
0.785 0.01 -0.00464999 -0.000251942 -1.17386e-05 0.923162
0.79 0.01 -0.00418137 -0.000240548 -1.05071e-05 0.834284
0.795 0.01 -0.00373406 -0.000228947 -9.33313e-06 0.749312
0.8 0.01 -0.0033084 -0.000217188 -8.21762e-06 0.668315
0.805 0.01 -0.00290467 -0.000205317 -7.16125e-06 0.591349
0.81 0.01 -0.00252305 -0.000193383 -6.16445e-06 0.518454
0.815 0.01 -0.00216365 -0.000181431 -5.22742e-06 0.449655
0.82 0.01 -0.00182648 -0.000169506 -4.35014e-06 0.384962
0.825 0.01 -0.00151149 -0.00015765 -3.53236e-06 0.324371
0.83 0.01 -0.00121854 -0.000145905 -2.77363e-06 0.267863
0.835 0.01 -0.000947422 -0.00013431 -2.0733e-06 0.215407
0.84 0.01 -0.000697847 -0.0001229 -1.43053e-06 0.166958
0.845 0.01 -0.000469472 -0.00011171 -8.44299e-07 0.122459
0.85 0.01 -0.000261891 -0.000100771 -3.13428e-07 0.0818432
0.855 0.01 -7.46373e-05 -9.01115e-05 1.63414e-07 0.0450304
0.86 0.01 9.28065e-05 -7.97582e-05 5.87694e-07 0.0119316
0.865 0.01 0.000241006 -6.97339e-05 9.61003e-07 -0.0175513
0.87 0.01 0.000370569 -6.00592e-05 1.28504e-06 -0.0435255
0.875 0.01 0.000482143 -5.07521e-05 1.5616e-06 -0.0661056
0.88 0.01 0.000576411 -4.18282e-05 1.79257e-06 -0.0854134
0.885 0.01 0.000654083 -3.33008e-05 1.97989e-06 -0.101577
0.89 0.01 0.000715899 -2.51813e-05 2.12558e-06 -0.114731
0.895 0.01 0.000762622 -1.74796e-05 2.23171e-06 -0.125014
0.9 0.01 0.000795034 -1.02045e-05 2.30039e-06 -0.132571
0.905 0.01 0.000813941 -3.36396e-06 2.33376e-06 -0.137552
0.91 0.01 0.000820167 3.03366e-06 2.33403e-06 -0.14011
0.915 0.01 0.000814555 8.97934e-06 2.30343e-06 -0.140404
0.92 0.01 0.000797974 1.44622e-05 2.24424e-06 -0.138601
0.925 0.01 0.000771318 1.94685e-05 2.15881e-06 -0.134869
0.93 0.01 0.000735516 2.39801e-05 2.04956e-06 -0.129389
0.935 0.01 0.000691537 2.79733e-05 1.91902e-06 -0.122348
0.94 0.01 0.000640405 3.14162e-05 1.76983e-06 -0.113944
0.945 0.01 0.000583213 3.4267e-05 1.60486e-06 -0.104388
0.95 0.01 0.000521138 3.64709e-05 1.42717e-06 -0.0939092
0.955 0.01 0.00045547 3.79567e-05 1.24015e-06 -0.0827549
0.96 0.01 0.000387633 3.86324e-05 1.0476e-06 -0.0711963
0.965 0.01 0.00031922 3.83811e-05 8.53827e-07 -0.0595314
0.97 0.01 0.000252026 3.70557e-05 6.63791e-07 -0.0480877
0.975 0.01 0.000188081 3.44765e-05 4.83271e-07 -0.0372219
0.98 0.01 0.000129671 3.04368e-05 3.19026e-07 -0.0273113
0.985 0.01 7.93165e-05 2.4737e-05 1.78903e-07 -0.0187295
0.99 0.01 3.96466e-05 1.73054e-05 7.16561e-08 -0.0117837
0.995 0.01 1.30241e-05 8.57507e-06 5.84814e-09 -0.0065764
1 0.01 5.85219e-07 5.84814e-07 -1.40946e-08 -0.00272316
0 0.015 0 0 -0.000468175 0
0.005 0.015 0 0 0 -255.961
0.01 0.015 -0.152866 0.184879 -0.00180049 -79.2519
0.015 0.015 -0.206269 -0.023632 -0.00184879 -16.6377
0.02 0.015 -0.204629 -0.0572908 -0.00156417 2.30797
0.025 0.015 -0.184614 -0.052245 -0.00127588 7.91481
0.03 0.015 -0.16108 -0.041671 -0.00104172 9.23585
0.035 0.015 -0.139017 -0.0325378 -0.000859174 9.10118
0.04 0.015 -0.119717 -0.0256346 -0.000716341 8.47776
0.045 0.015 -0.103223 -0.0205211 -0.000602829 7.71854
0.05 0.015 -0.0892181 -0.0166798 -0.00051113 6.95682
0.055 0.015 -0.0773337 -0.0137242 -0.000436031 6.24244
0.06 0.015 -0.0672351 -0.0113945 -0.000373888 5.5922
0.065 0.015 -0.0586414 -0.00951996 -0.000322086 5.00941
0.07 0.015 -0.0513209 -0.00798682 -0.000278688 4.49188
0.075 0.015 -0.0450826 -0.00671749 -0.000242218 4.03526
0.08 0.015 -0.0397676 -0.00565714 -0.000211514 3.63442
0.085 0.015 -0.0352431 -0.00476567 -0.000185646 3.28414
0.09 0.015 -0.0313966 -0.00401269 -0.000163857 2.97939
0.095 0.015 -0.0281328 -0.00337451 -0.000145519 2.71542
0.1 0.015 -0.0253704 -0.00283221 -0.000130112 2.48787
0.105 0.015 -0.0230399 -0.00237039 -0.000117197 2.29275
0.11 0.015 -0.0210818 -0.00197634 -0.000106408 2.12643
0.115 0.015 -0.0194452 -0.00163948 -9.74336e-05 1.98568
0.12 0.015 -0.0180864 -0.00135092 -9.00129e-05 1.86757
0.125 0.015 -0.0169682 -0.00110316 -8.39244e-05 1.76952
0.13 0.015 -0.0160587 -0.000889894 -7.89812e-05 1.68924
0.135 0.015 -0.0153305 -0.000705754 -7.50254e-05 1.62472
0.14 0.015 -0.0147606 -0.000546211 -7.19236e-05 1.57417
0.145 0.015 -0.0143289 -0.000407423 -6.95633e-05 1.53605
0.15 0.015 -0.0140187 -0.000286139 -6.78493e-05 1.509
0.155 0.015 -0.0138156 -0.000179606 -6.67018e-05 1.49183
0.16 0.015 -0.0137075 -8.54968e-05 -6.60532e-05 1.48352
0.165 0.015 -0.0136838 -1.84698e-06 -6.58468e-05 1.48317
0.17 0.015 -0.0137359 7.3e-05 -6.60347e-05 1.49002
0.175 0.015 -0.0138563 0.000140438 -6.65768e-05 1.50338
0.18 0.015 -0.0140387 0.000201638 -6.74391e-05 1.52268
0.185 0.015 -0.0142775 0.000257579 -6.85931e-05 1.54742
0.19 0.015 -0.0145684 0.000309079 -7.00148e-05 1.57715
0.195 0.015 -0.0149073 0.00035682 -7.16839e-05 1.6115
0.2 0.015 -0.0152908 0.000401366 -7.3583e-05 1.65013
0.205 0.015 -0.0157162 0.00044318 -7.56975e-05 1.69275
0.21 0.015 -0.0161809 0.000482646 -7.80148e-05 1.7391
0.215 0.015 -0.0166827 0.000520072 -8.0524e-05 1.78895
0.22 0.015 -0.0172196 0.000555711 -8.32155e-05 1.84209
0.225 0.015 -0.0177901 0.000589762 -8.6081e-05 1.89834
0.23 0.015 -0.0183925 0.000622383 -8.91131e-05 1.95753
0.235 0.015 -0.0190253 0.000653696 -9.23049e-05 2.01949
0.24 0.015 -0.0196874 0.000683794 -9.565e-05 2.08408
0.245 0.015 -0.0203774 0.000712743 -9.91428e-05 2.15115
0.25 0.015 -0.0210941 0.00074059 -0.000102777 2.22057
0.255 0.015 -0.0218364 0.000767361 -0.000106549 2.29221
0.26 0.015 -0.0226032 0.00079307 -0.000110451 2.36594
0.265 0.015 -0.0233933 0.000817718 -0.000114479 2.44162
0.27 0.015 -0.0242056 0.000841294 -0.000118628 2.51914
0.275 0.015 -0.0250389 0.00086378 -0.000122892 2.59836
0.28 0.015 -0.0258921 0.00088515 -0.000127266 2.67916
0.285 0.015 -0.0267641 0.000905371 -0.000131744 2.7614
0.29 0.015 -0.0276535 0.000924408 -0.00013632 2.84495
0.295 0.015 -0.0285592 0.000942218 -0.000140988 2.92968
0.3 0.015 -0.0294798 0.000958759 -0.000145742 3.01545
0.305 0.015 -0.030414 0.000973984 -0.000150576 3.10211
0.31 0.015 -0.0313605 0.000987845 -0.000155482 3.18954
0.315 0.015 -0.0323179 0.00100029 -0.000160454 3.27757
0.32 0.015 -0.0332846 0.00101128 -0.000165485 3.36608
0.325 0.015 -0.0342592 0.00102076 -0.000170567 3.45489
0.33 0.015 -0.0352402 0.00102867 -0.000175692 3.54387
0.335 0.015 -0.036226 0.00103498 -0.000180854 3.63285
0.34 0.015 -0.037215 0.00103963 -0.000186042 3.72169
0.345 0.015 -0.0382054 0.00104259 -0.00019125 3.81021
0.35 0.015 -0.0391958 0.0010438 -0.000196468 3.89827
0.355 0.015 -0.0401842 0.00104323 -0.000201688 3.9857
0.36 0.015 -0.0411691 0.00104084 -0.0002069 4.07233
0.365 0.015 -0.0421485 0.00103659 -0.000212096 4.158
0.37 0.015 -0.0431208 0.00103045 -0.000217266 4.24256
0.375 0.015 -0.044084 0.0010224 -0.000222401 4.32583
0.38 0.015 -0.0450364 0.00101241 -0.000227491 4.40765
0.385 0.015 -0.0459762 0.00100045 -0.000232525 4.48787
0.39 0.015 -0.0469013 0.000986515 -0.000237495 4.56631
0.395 0.015 -0.0478101 0.000970587 -0.00024239 4.64281
0.4 0.015 -0.0487006 0.000952658 -0.000247201 4.71723
0.405 0.015 -0.0495709 0.000932723 -0.000251917 4.7894
0.41 0.015 -0.0504193 0.000910783 -0.000256528 4.85917
0.415 0.015 -0.0512438 0.000886843 -0.000261025 4.92639
0.42 0.015 -0.0520427 0.000860913 -0.000265397 4.99091
0.425 0.015 -0.0528141 0.000833007 -0.000269634 5.05258
0.43 0.015 -0.0535563 0.000803145 -0.000273727 5.11127
0.435 0.015 -0.0542675 0.000771352 -0.000277666 5.16684
0.44 0.015 -0.0549459 0.000737658 -0.000281441 5.21915
0.445 0.015 -0.05559 0.000702097 -0.000285043 5.26809
0.45 0.015 -0.056198 0.000664709 -0.000288462 5.31353
0.455 0.015 -0.0567684 0.000625541 -0.00029169 5.35535
0.46 0.015 -0.0572996 0.000584641 -0.000294717 5.39344
0.465 0.015 -0.0577901 0.000542067 -0.000297536 5.4277
0.47 0.015 -0.0582386 0.000497879 -0.000300138 5.45803
0.475 0.015 -0.0586436 0.000452144 -0.000302515 5.48435
0.48 0.015 -0.0590039 0.000404934 -0.00030466 5.50656
0.485 0.015 -0.0593182 0.000356324 -0.000306565 5.5246
0.49 0.015 -0.0595855 0.000306398 -0.000308223 5.53838
0.495 0.015 -0.0598046 0.000255243 -0.000309629 5.54786
0.5 0.015 -0.0599746 0.00020295 -0.000310776 5.55297
0.505 0.015 -0.0600946 0.000149617 -0.000311659 5.55367
0.51 0.015 -0.0601639 9.5346e-05 -0.000312272 5.54992
0.515 0.015 -0.0601817 4.02441e-05 -0.000312612 5.5417
0.52 0.015 -0.0601474 -1.55776e-05 -0.000312675 5.52899
0.525 0.015 -0.0600606 -7.20029e-05 -0.000312457 5.51177
0.53 0.015 -0.059921 -0.000128912 -0.000311955 5.49003
0.535 0.015 -0.0597282 -0.00018618 -0.000311168 5.4638
0.54 0.015 -0.059482 -0.00024368 -0.000310093 5.43308
0.545 0.015 -0.0591826 -0.000301279 -0.000308731 5.3979
0.55 0.015 -0.0588299 -0.000358843 -0.000307081 5.35829
0.555 0.015 -0.0584243 -0.000416235 -0.000305143 5.3143
0.56 0.015 -0.0579659 -0.000473314 -0.000302919 5.26597
0.565 0.015 -0.0574553 -0.000529937 -0.00030041 5.21338
0.57 0.015 -0.0568932 -0.000585961 -0.000297619 5.15659
0.575 0.015 -0.0562801 -0.000641239 -0.000294551 5.09568
0.58 0.015 -0.0556169 -0.000695627 -0.000291207 5.03074
0.585 0.015 -0.0549047 -0.000748976 -0.000287594 4.96188
0.59 0.015 -0.0541445 -0.000801142 -0.000283718 4.88919
0.595 0.015 -0.0533376 -0.000851978 -0.000279583 4.8128
0.6 0.015 -0.0524853 -0.00090134 -0.000275198 4.73283
0.605 0.015 -0.051589 -0.000949086 -0.00027057 4.64942
0.61 0.015 -0.0506505 -0.000995077 -0.000265707 4.5627
0.615 0.015 -0.0496713 -0.00103918 -0.000260619 4.47283
0.62 0.015 -0.0486534 -0.00108125 -0.000255316 4.37996
0.625 0.015 -0.0475986 -0.00112118 -0.000249807 4.28425
0.63 0.015 -0.0465091 -0.00115883 -0.000244104 4.18589
0.635 0.015 -0.0453869 -0.00119409 -0.000238219 4.08504
0.64 0.015 -0.0442344 -0.00122686 -0.000232164 3.98189
0.645 0.015 -0.0430538 -0.00125703 -0.000225951 3.87663
0.65 0.015 -0.0418477 -0.0012845 -0.000219593 3.76945
0.655 0.015 -0.0406183 -0.00130919 -0.000213106 3.66056
0.66 0.015 -0.0393684 -0.00133103 -0.000206502 3.55016
0.665 0.015 -0.0381006 -0.00134994 -0.000199796 3.43845
0.67 0.015 -0.0368175 -0.00136588 -0.000193002 3.32564
0.675 0.015 -0.0355218 -0.0013788 -0.000186137 3.21195
0.68 0.015 -0.0342163 -0.00138867 -0.000179215 3.09759
0.685 0.015 -0.0329038 -0.00139545 -0.00017225 2.98278
0.69 0.015 -0.031587 -0.00139915 -0.00016526 2.86773
0.695 0.015 -0.0302687 -0.00139977 -0.000158259 2.75266
0.7 0.015 -0.0289517 -0.00139732 -0.000151263 2.63779
0.705 0.015 -0.0276387 -0.00139183 -0.000144286 2.52332
0.71 0.015 -0.0263325 -0.00138334 -0.000137344 2.40948
0.715 0.015 -0.0250358 -0.0013719 -0.000130453 2.29646
0.72 0.015 -0.0237511 -0.00135757 -0.000123626 2.18447
0.725 0.015 -0.0224811 -0.00134044 -0.000116877 2.07372
0.73 0.015 -0.0212283 -0.00132059 -0.000110221 1.9644
0.735 0.015 -0.019995 -0.00129812 -0.000103671 1.85669
0.74 0.015 -0.0187836 -0.00127314 -9.72402e-05 1.75079
0.745 0.015 -0.0175963 -0.00124577 -9.094e-05 1.64687
0.75 0.015 -0.0164353 -0.00121614 -8.47825e-05 1.5451
0.755 0.015 -0.0153026 -0.0011844 -7.87786e-05 1.44563
0.76 0.015 -0.0141999 -0.00115068 -7.29386e-05 1.34863
0.765 0.015 -0.0131291 -0.00111515 -6.72718e-05 1.25423
0.77 0.015 -0.0120917 -0.00107795 -6.17871e-05 1.16257
0.775 0.015 -0.0110893 -0.00103926 -5.64923e-05 1.07377
0.78 0.015 -0.0101232 -0.000999247 -5.13945e-05 0.98795
0.785 0.015 -0.00919441 -0.000958079 -4.64999e-05 0.905201
0.79 0.015 -0.00830408 -0.000915931 -4.18138e-05 0.825617
0.795 0.015 -0.00745303 -0.000872978 -3.73406e-05 0.749279
0.8 0.015 -0.00664198 -0.000829393 -3.3084e-05 0.676253
0.805 0.015 -0.00587146 -0.00078535 -2.90467e-05 0.606596
0.81 0.015 -0.00514187 -0.000741018 -2.52305e-05 0.540351
0.815 0.015 -0.00445345 -0.000696565 -2.16365e-05 0.477552
0.82 0.015 -0.0038063 -0.000652153 -1.82648e-05 0.418218
0.825 0.015 -0.00320037 -0.000607938 -1.51149e-05 0.362359
0.83 0.015 -0.00263546 -0.000564071 -1.21854e-05 0.309974
0.835 0.015 -0.00211125 -0.000520696 -9.4742e-06 0.26105
0.84 0.015 -0.00162728 -0.000477947 -6.97845e-06 0.215562