Title=" Lid Driven Flow"
VARIABLES="X","Y","U","V","psi","xi"
ZONE T= "BOX", I= 201, J=201, F=POINT
0 0 0 0 0.000181858 0
0.005 0 0 0 0 0
0.01 0 0 0 0 0
0.015 0 0 0 0 161.887
0.02 0 0 0 0 176.135
0.025 0 0 0 0 155.661
0.03 0 0 0 0 133.336
0.035 0 0 0 0 115.888
0.04 0 0 0 0 103.1
0.045 0 0 0 0 93.619
0.05 0 0 0 0 86.3279
0.055 0 0 0 0 80.4907
0.06 0 0 0 0 75.6476
0.065 0 0 0 0 71.5103
0.07 0 0 0 0 67.8927
0.075 0 0 0 0 64.6704
0.08 0 0 0 0 61.7578
0.085 0 0 0 0 59.0945
0.09 0 0 0 0 56.6363
0.095 0 0 0 0 54.351
0.1 0 0 0 0 52.214
0.105 0 0 0 0 50.2067
0.11 0 0 0 0 48.3143
0.115 0 0 0 0 46.5253
0.12 0 0 0 0 44.8302
0.125 0 0 0 0 43.221
0.13 0 0 0 0 41.6912
0.135 0 0 0 0 40.235
0.14 0 0 0 0 38.8472
0.145 0 0 0 0 37.5234
0.15 0 0 0 0 36.2593
0.155 0 0 0 0 35.0511
0.16 0 0 0 0 33.8953
0.165 0 0 0 0 32.7885
0.17 0 0 0 0 31.7276
0.175 0 0 0 0 30.7096
0.18 0 0 0 0 29.7316
0.185 0 0 0 0 28.7911
0.19 0 0 0 0 27.8853
0.195 0 0 0 0 27.0121
0.2 0 0 0 0 26.1689
0.205 0 0 0 0 25.3537
0.21 0 0 0 0 24.5644
0.215 0 0 0 0 23.7991
0.22 0 0 0 0 23.056
0.225 0 0 0 0 22.3335
0.23 0 0 0 0 21.6298
0.235 0 0 0 0 20.9436
0.24 0 0 0 0 20.2735
0.245 0 0 0 0 19.6184
0.25 0 0 0 0 18.9771
0.255 0 0 0 0 18.3485
0.26 0 0 0 0 17.7319
0.265 0 0 0 0 17.1264
0.27 0 0 0 0 16.5313
0.275 0 0 0 0 15.9461
0.28 0 0 0 0 15.3702
0.285 0 0 0 0 14.8034
0.29 0 0 0 0 14.2452
0.295 0 0 0 0 13.6956
0.3 0 0 0 0 13.1542
0.305 0 0 0 0 12.6212
0.31 0 0 0 0 12.0965
0.315 0 0 0 0 11.5802
0.32 0 0 0 0 11.0725
0.325 0 0 0 0 10.5735
0.33 0 0 0 0 10.0835
0.335 0 0 0 0 9.60271
0.34 0 0 0 0 9.13152
0.345 0 0 0 0 8.67024
0.35 0 0 0 0 8.21922
0.355 0 0 0 0 7.77882
0.36 0 0 0 0 7.34942
0.365 0 0 0 0 6.93137
0.37 0 0 0 0 6.52503
0.375 0 0 0 0 6.13073
0.38 0 0 0 0 5.74879
0.385 0 0 0 0 5.37948
0.39 0 0 0 0 5.02307
0.395 0 0 0 0 4.67976
0.4 0 0 0 0 4.34974
0.405 0 0 0 0 4.03313
0.41 0 0 0 0 3.73003
0.415 0 0 0 0 3.44046
0.42 0 0 0 0 3.16443
0.425 0 0 0 0 2.90188
0.43 0 0 0 0 2.65272
0.435 0 0 0 0 2.41678
0.44 0 0 0 0 2.19389
0.445 0 0 0 0 1.98382
0.45 0 0 0 0 1.78629
0.455 0 0 0 0 1.601
0.46 0 0 0 0 1.42762
0.465 0 0 0 0 1.26578
0.47 0 0 0 0 1.11509
0.475 0 0 0 0 0.975151
0.48 0 0 0 0 0.845528
0.485 0 0 0 0 0.725787
0.49 0 0 0 0 0.615477
0.495 0 0 0 0 0.514143
0.5 0 0 0 0 0.421328
0.505 0 0 0 0 0.336571
0.51 0 0 0 0 0.259415
0.515 0 0 0 0 0.189407
0.52 0 0 0 0 0.126098
0.525 0 0 0 0 0.0690489
0.53 0 0 0 0 0.0178305
0.535 0 0 0 0 -0.0279754
0.54 0 0 0 0 -0.0687737
0.545 0 0 0 0 -0.104955
0.55 0 0 0 0 -0.136893
0.555 0 0 0 0 -0.164944
0.56 0 0 0 0 -0.189448
0.565 0 0 0 0 -0.210721
0.57 0 0 0 0 -0.229063
0.575 0 0 0 0 -0.24475
0.58 0 0 0 0 -0.258038
0.585 0 0 0 0 -0.26916
0.59 0 0 0 0 -0.278332
0.595 0 0 0 0 -0.285745
0.6 0 0 0 0 -0.291572
0.605 0 0 0 0 -0.295968
0.61 0 0 0 0 -0.299071
0.615 0 0 0 0 -0.301002
0.62 0 0 0 0 -0.301869
0.625 0 0 0 0 -0.301768
0.63 0 0 0 0 -0.300783
0.635 0 0 0 0 -0.298989
0.64 0 0 0 0 -0.296455
0.645 0 0 0 0 -0.293241
0.65 0 0 0 0 -0.289406
0.655 0 0 0 0 -0.285001
0.66 0 0 0 0 -0.280077
0.665 0 0 0 0 -0.274682
0.67 0 0 0 0 -0.268863
0.675 0 0 0 0 -0.262667
0.68 0 0 0 0 -0.256136
0.685 0 0 0 0 -0.249318
0.69 0 0 0 0 -0.242254
0.695 0 0 0 0 -0.234988
0.7 0 0 0 0 -0.227563
0.705 0 0 0 0 -0.22002
0.71 0 0 0 0 -0.2124
0.715 0 0 0 0 -0.20474
0.72 0 0 0 0 -0.197079
0.725 0 0 0 0 -0.189451
0.73 0 0 0 0 -0.18189
0.735 0 0 0 0 -0.174426
0.74 0 0 0 0 -0.167088
0.745 0 0 0 0 -0.1599
0.75 0 0 0 0 -0.152887
0.755 0 0 0 0 -0.146068
0.76 0 0 0 0 -0.139462
0.765 0 0 0 0 -0.133082
0.77 0 0 0 0 -0.126941
0.775 0 0 0 0 -0.12105
0.78 0 0 0 0 -0.115415
0.785 0 0 0 0 -0.110041
0.79 0 0 0 0 -0.104931
0.795 0 0 0 0 -0.100086
0.8 0 0 0 0 -0.0955037
0.805 0 0 0 0 -0.0911821
0.81 0 0 0 0 -0.0871163
0.815 0 0 0 0 -0.0832998
0.82 0 0 0 0 -0.0797251
0.825 0 0 0 0 -0.0763832
0.83 0 0 0 0 -0.0732638
0.835 0 0 0 0 -0.0703556
0.84 0 0 0 0 -0.0676463
0.845 0 0 0 0 -0.0651225
0.85 0 0 0 0 -0.0627698
0.855 0 0 0 0 -0.0605732
0.86 0 0 0 0 -0.0585166
0.865 0 0 0 0 -0.0565833
0.87 0 0 0 0 -0.0547559
0.875 0 0 0 0 -0.0530162
0.88 0 0 0 0 -0.0513457
0.885 0 0 0 0 -0.0497251
0.89 0 0 0 0 -0.0481351
0.895 0 0 0 0 -0.0465558
0.9 0 0 0 0 -0.0449676
0.905 0 0 0 0 -0.0433507
0.91 0 0 0 0 -0.0416859
0.915 0 0 0 0 -0.0399548
0.92 0 0 0 0 -0.0381399
0.925 0 0 0 0 -0.0362255
0.93 0 0 0 0 -0.0341977
0.935 0 0 0 0 -0.0320458
0.94 0 0 0 0 -0.0297622
0.945 0 0 0 0 -0.0273441
0.95 0 0 0 0 -0.0247941
0.955 0 0 0 0 -0.0221219
0.96 0 0 0 0 -0.0193457
0.965 0 0 0 0 -0.016494
0.97 0 0 0 0 -0.0136082
0.975 0 0 0 0 -0.0107452
0.98 0 0 0 0 -0.00798092
0.985 0 0 0 0 -0.00541341
0.99 0 0 0 0 -0.00316624
0.995 0 0 0 0 -0.00138752
1 0 0 0 0 -0.000235309
0 0.005 0 0 0 0
0.005 0.005 0 0 0 0
0.01 0.005 0 0 0 73.7217
0.015 0.005 0 0 0 61.9615
0.02 0.005 0 0 0 45.4834
0.025 0.005 0 0 0 33.648
0.03 0.005 0 0 0 25.7799
0.035 0.005 0 0 0 20.4708
0.04 0.005 0 0 0 16.7535
0.045 0.005 0 0 0 14.0486
0.05 0.005 0 0 0 12.013
0.055 0.005 0 0 0 10.4376
0.06 0.005 0 0 0 9.19016
0.065 0.005 0 0 0 8.18374
0.07 0.005 0 0 0 7.3589
0.075 0.005 0 0 0 6.67385
0.08 0.005 0 0 0 6.09839
0.085 0.005 0 0 0 5.6102
0.09 0.005 0 0 0 5.19247
0.095 0.005 0 0 0 4.8323
0.1 0.005 0 0 0 4.51968
0.105 0.005 0 0 0 4.24671
0.11 0.005 0 0 0 4.00708
0.115 0.005 0 0 0 3.79573
0.12 0.005 0 0 0 3.6085
0.125 0.005 0 0 0 3.44202
0.13 0.005 0 0 0 3.29348
0.135 0.005 0 0 0 3.16052
0.14 0.005 0 0 0 3.04118
0.145 0.005 0 0 0 2.93379
0.15 0.005 0 0 0 2.83693
0.155 0.005 0 0 0 2.74939
0.16 0.005 0 0 0 2.67013
0.165 0.005 0 0 0 2.59823
0.17 0.005 0 0 0 2.53292
0.175 0.005 0 0 0 2.4735
0.18 0.005 0 0 0 2.41938
0.185 0.005 0 0 0 2.37001
0.19 0.005 0 0 0 2.32494
0.195 0.005 0 0 0 2.28374
0.2 0.005 0 0 0 2.24604
0.205 0.005 0 0 0 2.21151
0.21 0.005 0 0 0 2.17985
0.215 0.005 0 0 0 2.15079
0.22 0.005 0 0 0 2.12409
0.225 0.005 0 0 0 2.09953
0.23 0.005 0 0 0 2.07691
0.235 0.005 0 0 0 2.05605
0.24 0.005 0 0 0 2.03678
0.245 0.005 0 0 0 2.01895
0.25 0.005 0 0 0 2.00242
0.255 0.005 0 0 0 1.98707
0.26 0.005 0 0 0 1.97277
0.265 0.005 0 0 0 1.95943
0.27 0.005 0 0 0 1.94693
0.275 0.005 0 0 0 1.93518
0.28 0.005 0 0 0 1.92411
0.285 0.005 0 0 0 1.91362
0.29 0.005 0 0 0 1.90365
0.295 0.005 0 0 0 1.89413
0.3 0.005 0 0 0 1.88499
0.305 0.005 0 0 0 1.87618
0.31 0.005 0 0 0 1.86763
0.315 0.005 0 0 0 1.8593
0.32 0.005 0 0 0 1.85113
0.325 0.005 0 0 0 1.84309
0.33 0.005 0 0 0 1.83513
0.335 0.005 0 0 0 1.82722
0.34 0.005 0 0 0 1.8193
0.345 0.005 0 0 0 1.81137
0.35 0.005 0 0 0 1.80337
0.355 0.005 0 0 0 1.79529
0.36 0.005 0 0 0 1.78709
0.365 0.005 0 0 0 1.77875
0.37 0.005 0 0 0 1.77026
0.375 0.005 0 0 0 1.76158
0.38 0.005 0 0 0 1.7527
0.385 0.005 0 0 0 1.7436
0.39 0.005 0 0 0 1.73427
0.395 0.005 0 0 0 1.7247
0.4 0.005 0 0 0 1.71486
0.405 0.005 0 0 0 1.70476
0.41 0.005 0 0 0 1.69437
0.415 0.005 0 0 0 1.6837
0.42 0.005 0 0 0 1.67274
0.425 0.005 0 0 0 1.66147
0.43 0.005 0 0 0 1.6499
0.435 0.005 0 0 0 1.63802
0.44 0.005 0 0 0 1.62584
0.445 0.005 0 0 0 1.61334
0.45 0.005 0 0 0 1.60054
0.455 0.005 0 0 0 1.58742
0.46 0.005 0 0 0 1.574
0.465 0.005 0 0 0 1.56027
0.47 0.005 0 0 0 1.54624
0.475 0.005 0 0 0 1.53192
0.48 0.005 0 0 0 1.5173
0.485 0.005 0 0 0 1.50239
0.49 0.005 0 0 0 1.48721
0.495 0.005 0 0 0 1.47175
0.5 0.005 0 0 0 1.45602
0.505 0.005 0 0 0 1.44003
0.51 0.005 0 0 0 1.4238
0.515 0.005 0 0 0 1.40732
0.52 0.005 0 0 0 1.39061
0.525 0.005 0 0 0 1.37368
0.53 0.005 0 0 0 1.35653
0.535 0.005 0 0 0 1.33918
0.54 0.005 0 0 0 1.32163
0.545 0.005 0 0 0 1.3039
0.55 0.005 0 0 0 1.28599
0.555 0.005 0 0 0 1.26793
0.56 0.005 0 0 0 1.24971
0.565 0.005 0 0 0 1.23134
0.57 0.005 0 0 0 1.21285
0.575 0.005 0 0 0 1.19423
0.58 0.005 0 0 0 1.17551
0.585 0.005 0 0 0 1.15668
0.59 0.005 0 0 0 1.13776
0.595 0.005 0 0 0 1.11876
0.6 0.005 0 0 0 1.0997
0.605 0.005 0 0 0 1.08057
0.61 0.005 0 0 0 1.06139
0.615 0.005 0 0 0 1.04217
0.62 0.005 0 0 0 1.02292
0.625 0.005 0 0 0 1.00365
0.63 0.005 0 0 0 0.984364
0.635 0.005 0 0 0 0.965072
0.64 0.005 0 0 0 0.945783
0.645 0.005 0 0 0 0.926505
0.65 0.005 0 0 0 0.907246
0.655 0.005 0 0 0 0.888014
0.66 0.005 0 0 0 0.868815
0.665 0.005 0 0 0 0.849658
0.67 0.005 0 0 0 0.830548
0.675 0.005 0 0 0 0.811493
0.68 0.005 0 0 0 0.792498
0.685 0.005 0 0 0 0.77357
0.69 0.005 0 0 0 0.754715
0.695 0.005 0 0 0 0.735938
0.7 0.005 0 0 0 0.717245
0.705 0.005 0 0 0 0.698641
0.71 0.005 0 0 0 0.68013
0.715 0.005 0 0 0 0.661719
0.72 0.005 0 0 0 0.643411
0.725 0.005 0 0 0 0.625212
0.73 0.005 0 0 0 0.607126
0.735 0.005 0 0 0 0.589156
0.74 0.005 0 0 0 0.571309
0.745 0.005 0 0 0 0.553587
0.75 0.005 0 0 0 0.535995
0.755 0.005 0 0 0 0.518538
0.76 0.005 0 0 0 0.501219
0.765 0.005 0 0 0 0.484043
0.77 0.005 0 0 0 0.467015
0.775 0.005 0 0 0 0.450139
0.78 0.005 0 0 0 0.433418
0.785 0.005 0 0 0 0.416859
0.79 0.005 0 0 0 0.400466
0.795 0.005 0 0 0 0.384244
0.8 0.005 0 0 0 0.368199
0.805 0.005 0 0 0 0.352336
0.81 0.005 0 0 0 0.33666
0.815 0.005 0 0 0 0.321179
0.82 0.005 0 0 0 0.305899
0.825 0.005 0 0 0 0.290826
0.83 0.005 0 0 0 0.275969
0.835 0.005 0 0 0 0.261334
0.84 0.005 0 0 0 0.246931
0.845 0.005 0 0 0 0.232768
0.85 0.005 0 0 0 0.218854
0.855 0.005 0 0 0 0.205201
0.86 0.005 0 0 0 0.191818
0.865 0.005 0 0 0 0.178717
0.87 0.005 0 0 0 0.16591
0.875 0.005 0 0 0 0.153411
0.88 0.005 0 0 0 0.141233
0.885 0.005 0 0 0 0.129391
0.89 0.005 0 0 0 0.117901
0.895 0.005 0 0 0 0.106781
0.9 0.005 0 0 0 0.0960482
0.905 0.005 0 0 0 0.0857221
0.91 0.005 0 0 0 0.0758237
0.915 0.005 0 0 0 0.0663751
0.92 0.005 0 0 0 0.0574
0.925 0.005 0 0 0 0.0489238
0.93 0.005 0 0 0 0.0409733
0.935 0.005 0 0 0 0.0335773
0.94 0.005 0 0 0 0.0267659
0.945 0.005 0 0 0 0.0205711
0.95 0.005 0 0 0 0.0150261
0.955 0.005 0 0 0 0.0101649
0.96 0.005 0 0 0 0.00602157
0.965 0.005 0 0 0 0.00262858
0.97 0.005 0 0 0 1.44087e-05
0.975 0.005 0 0 0 -0.00180114
0.98 0.005 0 0 0 -0.00281491
0.985 0.005 0 0 0 -0.00305477
0.99 0.005 0 0 0 -0.002606
0.995 0.005 0 0 0 -0.0016583
1 0.005 0 0 0 -0.00058172
0 0.01 0 0 -0.00058172 0
0.005 0.01 0 0 0 -326.278
0.01 0.01 -0.179929 0.0774519 -0.000921521 -44.4911
0.015 0.01 -0.184397 -0.0352979 -0.000774519 9.43816
0.02 0.01 -0.155554 -0.0353919 -0.000568542 19.0596
0.025 0.01 -0.126594 -0.0246294 -0.0004206 18.9733
0.03 0.01 -0.103409 -0.0164716 -0.000322248 16.8632
0.035 0.01 -0.0857253 -0.0112829 -0.000255885 14.6153
0.04 0.01 -0.0722661 -0.00802767 -0.000209419 12.6591
0.045 0.01 -0.0618905 -0.00592566 -0.000175608 11.0422
0.05 0.01 -0.0537569 -0.00451385 -0.000150162 9.71991
0.055 0.01 -0.0472726 -0.00352851 -0.000130469 8.63549
0.06 0.01 -0.0420226 -0.00281727 -0.000114877 7.73936
0.065 0.01 -0.0377129 -0.00228907 -0.000102297 6.9922
0.07 0.01 -0.0341317 -0.00188736 -9.19861e-05 6.36367
0.075 0.01 -0.0311237 -0.00157563 -8.3423e-05 5.83044
0.08 0.01 -0.0285732 -0.00132955 -7.62297e-05 5.37454
0.085 0.01 -0.0263923 -0.00113239 -7.01274e-05 4.98197
0.09 0.01 -0.0245135 -0.000972359 -6.49057e-05 4.64173
0.095 0.01 -0.0228841 -0.000840968 -6.04037e-05 4.34512
0.1 0.01 -0.0214625 -0.00073198 -5.6496e-05 4.08514
0.105 0.01 -0.0202155 -0.00064074 -5.30838e-05 3.85617
0.11 0.01 -0.0191164 -0.000563722 -5.00884e-05 3.65363
0.115 0.01 -0.0181435 -0.000498216 -4.74465e-05 3.47374
0.12 0.01 -0.0172788 -0.000442118 -4.51062e-05 3.31339
0.125 0.01 -0.0165076 -0.000393774 -4.30252e-05 3.16998
0.13 0.01 -0.0158175 -0.000351874 -4.11684e-05 3.04134
0.135 0.01 -0.0151983 -0.000315367 -3.95064e-05 2.92563
0.14 0.01 -0.0146412 -0.000283406 -3.80146e-05 2.82129
0.145 0.01 -0.0141388 -0.000255302 -3.66723e-05 2.72699
0.15 0.01 -0.0136846 -0.000230488 -3.54616e-05 2.64159
0.155 0.01 -0.0132734 -0.000208498 -3.43674e-05 2.56409
0.16 0.01 -0.0129002 -0.000188946 -3.33766e-05 2.49365
0.165 0.01 -0.0125612 -0.000171508 -3.24779e-05 2.42952
0.17 0.01 -0.0122526 -0.000155912 -3.16615e-05 2.37105
0.175 0.01 -0.0119713 -0.000141929 -3.09188e-05 2.31766
0.18 0.01 -0.0117146 -0.000129363 -3.02422e-05 2.26885
0.185 0.01 -0.0114801 -0.000118049 -2.96251e-05 2.22418
0.19 0.01 -0.0112656 -0.000107845 -2.90617e-05 2.18324
0.195 0.01 -0.0110692 -9.86268e-05 -2.85467e-05 2.14568
0.2 0.01 -0.0108891 -9.02897e-05 -2.80755e-05 2.11118
0.205 0.01 -0.0107238 -8.27416e-05 -2.76439e-05 2.07946
0.21 0.01 -0.010572 -7.59026e-05 -2.72481e-05 2.05026
0.215 0.01 -0.0104324 -6.97028e-05 -2.68849e-05 2.02335
0.22 0.01 -0.0103039 -6.40808e-05 -2.65512e-05 1.99852
0.225 0.01 -0.0101854 -5.89828e-05 -2.62442e-05 1.97558
0.23 0.01 -0.010076 -5.43612e-05 -2.59615e-05 1.95435
0.235 0.01 -0.00997484 -5.01736e-05 -2.57007e-05 1.93468
0.24 0.01 -0.00988121 -4.63828e-05 -2.54598e-05 1.91642
0.245 0.01 -0.00979437 -4.29552e-05 -2.5237e-05 1.89945
0.25 0.01 -0.00971366 -3.98609e-05 -2.50304e-05 1.88362
0.255 0.01 -0.00963849 -3.70732e-05 -2.48385e-05 1.86885
0.26 0.01 -0.0095683 -3.4568e-05 -2.46598e-05 1.85501
0.265 0.01 -0.00950258 -3.23235e-05 -2.4493e-05 1.84202
0.27 0.01 -0.00944086 -3.03201e-05 -2.43367e-05 1.82979
0.275 0.01 -0.00938271 -2.85399e-05 -2.41899e-05 1.81823
0.28 0.01 -0.00932773 -2.69666e-05 -2.40515e-05 1.80727
0.285 0.01 -0.00927553 -2.55854e-05 -2.39205e-05 1.79684
0.29 0.01 -0.00922578 -2.43827e-05 -2.37959e-05 1.78687
0.295 0.01 -0.00917814 -2.3346e-05 -2.36768e-05 1.77731
0.3 0.01 -0.00913231 -2.24638e-05 -2.35626e-05 1.76809
0.305 0.01 -0.00908802 -2.17255e-05 -2.34524e-05 1.75916
0.31 0.01 -0.009045 -2.11211e-05 -2.33456e-05 1.75047
0.315 0.01 -0.00900301 -2.06416e-05 -2.32414e-05 1.74198
0.32 0.01 -0.00896182 -2.02784e-05 -2.31394e-05 1.73365
0.325 0.01 -0.00892122 -2.00236e-05 -2.30389e-05 1.72543
0.33 0.01 -0.00888101 -1.98695e-05 -2.29394e-05 1.71728
0.335 0.01 -0.00884102 -1.98092e-05 -2.28404e-05 1.70918
0.34 0.01 -0.00880106 -1.98361e-05 -2.27416e-05 1.70109
0.345 0.01 -0.00876099 -1.99438e-05 -2.26424e-05 1.69299
0.35 0.01 -0.00872065 -2.01265e-05 -2.25424e-05 1.68483
0.355 0.01 -0.00867991 -2.03784e-05 -2.24414e-05 1.67661
0.36 0.01 -0.00863865 -2.06943e-05 -2.23389e-05 1.66829
0.365 0.01 -0.00859674 -2.10691e-05 -2.22347e-05 1.65985
0.37 0.01 -0.00855409 -2.14978e-05 -2.21285e-05 1.65128
0.375 0.01 -0.0085106 -2.19758e-05 -2.202e-05 1.64255
0.38 0.01 -0.00846618 -2.24987e-05 -2.1909e-05 1.63365
0.385 0.01 -0.00842074 -2.30622e-05 -2.17953e-05 1.62456
0.39 0.01 -0.00837422 -2.36623e-05 -2.16787e-05 1.61528
0.395 0.01 -0.00832656 -2.42949e-05 -2.1559e-05 1.60578
0.4 0.01 -0.00827768 -2.49564e-05 -2.14361e-05 1.59606
0.405 0.01 -0.00822756 -2.56431e-05 -2.13098e-05 1.58611
0.41 0.01 -0.00817613 -2.63517e-05 -2.118e-05 1.57592
0.415 0.01 -0.00812337 -2.70787e-05 -2.10466e-05 1.56548
0.42 0.01 -0.00806923 -2.7821e-05 -2.09095e-05 1.55479
0.425 0.01 -0.00801371 -2.85755e-05 -2.07687e-05 1.54385
0.43 0.01 -0.00795677 -2.93394e-05 -2.06241e-05 1.53264
0.435 0.01 -0.0078984 -3.01098e-05 -2.04756e-05 1.52117
0.44 0.01 -0.0078386 -3.08841e-05 -2.03233e-05 1.50943
0.445 0.01 -0.00777735 -3.16597e-05 -2.01671e-05 1.49743
0.45 0.01 -0.00771466 -3.24342e-05 -2.0007e-05 1.48516
0.455 0.01 -0.00765054 -3.32054e-05 -1.98431e-05 1.47262
0.46 0.01 -0.00758498 -3.39709e-05 -1.96753e-05 1.45983
0.465 0.01 -0.00751801 -3.47289e-05 -1.95037e-05 1.44677
0.47 0.01 -0.00744965 -3.54773e-05 -1.93284e-05 1.43345
0.475 0.01 -0.0073799 -3.62142e-05 -1.91493e-05 1.41988
0.48 0.01 -0.00730879 -3.69381e-05 -1.89665e-05 1.40606
0.485 0.01 -0.00723636 -3.76472e-05 -1.87802e-05 1.392
0.49 0.01 -0.00716262 -3.83401e-05 -1.85904e-05 1.37769
0.495 0.01 -0.00708762 -3.90154e-05 -1.83972e-05 1.36315
0.5 0.01 -0.00701138 -3.96719e-05 -1.82006e-05 1.34839
0.505 0.01 -0.00693394 -4.03083e-05 -1.80008e-05 1.3334
0.51 0.01 -0.00685534 -4.09237e-05 -1.77978e-05 1.3182
0.515 0.01 -0.00677563 -4.1517e-05 -1.75918e-05 1.3028
0.52 0.01 -0.00669483 -4.20875e-05 -1.73829e-05 1.2872
0.525 0.01 -0.00661301 -4.26343e-05 -1.71713e-05 1.27141
0.53 0.01 -0.00653019 -4.31569e-05 -1.69569e-05 1.25543
0.535 0.01 -0.00644643 -4.36547e-05 -1.674e-05 1.23929
0.54 0.01 -0.00636178 -4.41272e-05 -1.65207e-05 1.22298
0.545 0.01 -0.00627628 -4.4574e-05 -1.6299e-05 1.20651
0.55 0.01 -0.00618997 -4.49948e-05 -1.60752e-05 1.1899
0.555 0.01 -0.00610292 -4.53895e-05 -1.58494e-05 1.17315
0.56 0.01 -0.00601516 -4.5758e-05 -1.56216e-05 1.15628
0.565 0.01 -0.00592675 -4.61001e-05 -1.53921e-05 1.13928
0.57 0.01 -0.00583774 -4.64159e-05 -1.51609e-05 1.12218
0.575 0.01 -0.00574817 -4.67055e-05 -1.49282e-05 1.10497
0.58 0.01 -0.0056581 -4.69691e-05 -1.46941e-05 1.08767
0.585 0.01 -0.00556756 -4.72068e-05 -1.44587e-05 1.07029
0.59 0.01 -0.00547662 -4.7419e-05 -1.42223e-05 1.05283
0.595 0.01 -0.00538531 -4.7606e-05 -1.39848e-05 1.03531
0.6 0.01 -0.00529369 -4.77682e-05 -1.37465e-05 1.01774
0.605 0.01 -0.0052018 -4.79059e-05 -1.35074e-05 1.00011
0.61 0.01 -0.00510968 -4.80198e-05 -1.32676e-05 0.982449
0.615 0.01 -0.00501738 -4.81101e-05 -1.30274e-05 0.964753
0.62 0.01 -0.00492495 -4.81776e-05 -1.27868e-05 0.947033
0.625 0.01 -0.00483241 -4.82227e-05 -1.25459e-05 0.929298
0.63 0.01 -0.00473983 -4.82461e-05 -1.23048e-05 0.911555
0.635 0.01 -0.00464723 -4.82483e-05 -1.20636e-05 0.893811
0.64 0.01 -0.00455465 -4.82299e-05 -1.18225e-05 0.876074
0.645 0.01 -0.00446214 -4.81917e-05 -1.15815e-05 0.85835
0.65 0.01 -0.00436972 -4.81342e-05 -1.13408e-05 0.840647
0.655 0.01 -0.00427744 -4.8058e-05 -1.11004e-05 0.82297
0.66 0.01 -0.00418533 -4.79639e-05 -1.08604e-05 0.805327
0.665 0.01 -0.00409341 -4.78524e-05 -1.06209e-05 0.787723
0.67 0.01 -0.00400173 -4.77242e-05 -1.0382e-05 0.770165
0.675 0.01 -0.00391032 -4.75799e-05 -1.01438e-05 0.752658
0.68 0.01 -0.0038192 -4.74201e-05 -9.90639e-06 0.735207
0.685 0.01 -0.0037284 -4.72453e-05 -9.66979e-06 0.717818
0.69 0.01 -0.00363795 -4.70562e-05 -9.43409e-06 0.700496
0.695 0.01 -0.00354787 -4.68532e-05 -9.19938e-06 0.683246
0.7 0.01 -0.0034582 -4.66368e-05 -8.96571e-06 0.666072
0.705 0.01 -0.00336895 -4.64076e-05 -8.73315e-06 0.64898
0.71 0.01 -0.00328015 -4.61659e-05 -8.50176e-06 0.631974
0.715 0.01 -0.00319183 -4.59121e-05 -8.27162e-06 0.615058
0.72 0.01 -0.003104 -4.56466e-05 -8.04277e-06 0.598236
0.725 0.01 -0.00301668 -4.53697e-05 -7.81527e-06 0.581513
0.73 0.01 -0.00292991 -4.50816e-05 -7.58918e-06 0.564892
0.735 0.01 -0.00284369 -4.47826e-05 -7.36456e-06 0.548377
0.74 0.01 -0.00275806 -4.44728e-05 -7.14146e-06 0.531974
0.745 0.01 -0.00267302 -4.41523e-05 -6.91993e-06 0.515684
0.75 0.01 -0.00258861 -4.38212e-05 -6.70003e-06 0.499512
0.755 0.01 -0.00250484 -4.34794e-05 -6.48181e-06 0.483463
0.76 0.01 -0.00242173 -4.31269e-05 -6.26532e-06 0.467539
0.765 0.01 -0.0023393 -4.27636e-05 -6.05062e-06 0.451745
0.77 0.01 -0.00225757 -4.23892e-05 -5.83776e-06 0.436086
0.775 0.01 -0.00217657 -4.20035e-05 -5.6268e-06 0.420564
0.78 0.01 -0.00209631 -4.16062e-05 -5.4178e-06 0.405184
0.785 0.01 -0.00201683 -4.11968e-05 -5.21081e-06 0.389951
0.79 0.01 -0.00193813 -4.0775e-05 -5.00589e-06 0.37487
0.795 0.01 -0.00186026 -4.03401e-05 -4.80311e-06 0.359944
0.8 0.01 -0.00178322 -3.98915e-05 -4.60254e-06 0.34518
0.805 0.01 -0.00170706 -3.94286e-05 -4.40425e-06 0.330581
0.81 0.01 -0.0016318 -3.89505e-05 -4.2083e-06 0.316154
0.815 0.01 -0.00155746 -3.84565e-05 -4.01478e-06 0.301905
0.82 0.01 -0.00148409 -3.79455e-05 -3.82377e-06 0.28784
0.825 0.01 -0.00141171 -3.74166e-05 -3.63536e-06 0.273965
0.83 0.01 -0.00134036 -3.68687e-05 -3.44964e-06 0.260287
0.835 0.01 -0.00127008 -3.63005e-05 -3.2667e-06 0.246813
0.84 0.01 -0.00120091 -3.57108e-05 -3.08666e-06 0.233552
0.845 0.01 -0.00113289 -3.50982e-05 -2.90962e-06 0.220511
0.85 0.01 -0.00106606 -3.4461e-05 -2.7357e-06 0.2077
0.855 0.01 -0.00100048 -3.37979e-05 -2.56503e-06 0.195128
0.86 0.01 -0.000936203 -3.31069e-05 -2.39774e-06 0.182804
0.865 0.01 -0.000873275 -3.23862e-05 -2.23397e-06 0.17074
0.87 0.01 -0.000811759 -3.16339e-05 -2.07389e-06 0.158947
0.875 0.01 -0.000751717 -3.08478e-05 -1.91764e-06 0.147437
0.88 0.01 -0.000693217 -3.00256e-05 -1.76542e-06 0.136222
0.885 0.01 -0.000636329 -2.91649e-05 -1.61739e-06 0.125317
0.89 0.01 -0.000581131 -2.82629e-05 -1.47377e-06 0.114735
0.895 0.01 -0.000527702 -2.7317e-05 -1.33477e-06 0.104493
0.9 0.01 -0.000476129 -2.6324e-05 -1.2006e-06 0.0946069
0.905 0.01 -0.000426504 -2.52808e-05 -1.07153e-06 0.0850934
0.91 0.01 -0.000378925 -2.41839e-05 -9.47796e-07 0.0759713
0.915 0.01 -0.000333495 -2.30296e-05 -8.29688e-07 0.0672599
0.92 0.01 -0.000290325 -2.1814e-05 -7.17499e-07 0.0589798
0.925 0.01 -0.000249532 -2.05332e-05 -6.11545e-07 0.0511523
0.93 0.01 -0.00021124 -1.91829e-05 -5.12164e-07 0.0438
0.935 0.01 -0.000175577 -1.7759e-05 -4.19713e-07 0.036946
0.94 0.01 -0.000142679 -1.62573e-05 -3.34571e-07 0.0306142
0.945 0.01 -0.000112687 -1.46744e-05 -2.57136e-07 0.0248287
0.95 0.01 -8.57432e-05 -1.30074e-05 -1.87823e-07 0.0196133
0.955 0.01 -6.19912e-05 -1.12554e-05 -1.27058e-07 0.0149907
0.96 0.01 -4.15678e-05 -9.4201e-06 -7.52665e-08 0.0109809
0.965 0.01 -2.45966e-05 -7.50864e-06 -3.28545e-08 0.00759963
0.97 0.01 -1.1174e-05 -5.53688e-06 -1.77712e-10 0.00485465
0.975 0.01 -1.34827e-06 -3.5364e-06 2.25162e-08 0.00274145
0.98 0.01 4.9151e-06 -1.56684e-06 3.51878e-08 0.00123588
0.985 0.01 7.7885e-06 2.61277e-07 3.81856e-08 0.000283725
0.99 0.01 7.6709e-06 1.74568e-06 3.25756e-08 -0.000212889
0.995 0.01 5.32482e-06 2.53041e-06 2.0729e-08 -0.000407199
1 0.01 2.07013e-06 2.0729e-06 7.27151e-09 -0.000493782
0 0.015 0 0 -0.0016561 0
0.005 0.015 0 0 0 -256.057
0.01 0.015 -0.152588 0.184397 -0.00179929 -79.3707
0.015 0.015 -0.205541 -0.024375 -0.00184397 -16.6638
0.02 0.015 -0.203578 -0.0578023 -0.00155554 2.42487
0.025 0.015 -0.183633 -0.0521451 -0.00126594 8.13516
0.03 0.015 -0.160669 -0.040869 -0.00103409 9.52118
0.035 0.015 -0.139643 -0.0311427 -0.000857253 9.43737
0.04 0.015 -0.121735 -0.0238348 -0.000722661 8.86821
0.045 0.015 -0.106852 -0.0185092 -0.000618905 8.17387
0.05 0.015 -0.0945515 -0.0146179 -0.000537569 7.48785
0.055 0.015 -0.0843589 -0.0117343 -0.000472726 6.85677
0.06 0.015 -0.075862 -0.0095597 -0.000420226 6.29303
0.065 0.015 -0.0687269 -0.00789089 -0.000377128 5.79563
0.07 0.015 -0.0626897 -0.00658911 -0.000341316 5.35879
0.075 0.015 -0.0575438 -0.00555841 -0.000311237 4.97539
0.08 0.015 -0.0531269 -0.00473135 -0.000285732 4.63846
0.085 0.015 -0.0493112 -0.00405966 -0.000263923 4.34166
0.09 0.015 -0.0459951 -0.0035082 -0.000245135 4.07947
0.095 0.015 -0.0430974 -0.003051 -0.000228841 3.84714
0.1 0.015 -0.0405526 -0.00266855 -0.000214625 3.64061
0.105 0.015 -0.0383075 -0.00234602 -0.000202155 3.45647
0.11 0.015 -0.0363185 -0.002072 -0.000191164 3.2918
0.115 0.015 -0.0345496 -0.00183761 -0.000181434 3.14413
0.12 0.015 -0.0329711 -0.00163586 -0.000172788 3.01136
0.125 0.015 -0.0315581 -0.00146121 -0.000165076 2.89167
0.13 0.015 -0.0302894 -0.00130922 -0.000158175 2.78354
0.135 0.015 -0.0291473 -0.0011763 -0.000151983 2.68564
0.14 0.015 -0.0281168 -0.00105954 -0.000146412 2.59682
0.145 0.015 -0.0271849 -0.000956561 -0.000141388 2.51608
0.15 0.015 -0.0263405 -0.000865387 -0.000136846 2.44258
0.155 0.015 -0.0255739 -0.000784386 -0.000132734 2.37554
0.16 0.015 -0.0248769 -0.000712198 -0.000129002 2.31431
0.165 0.015 -0.024242 -0.000647677 -0.000125612 2.25831
0.17 0.015 -0.023663 -0.00058986 -0.000122525 2.20702
0.175 0.015 -0.0231342 -0.000537928 -0.000119713 2.15998
0.18 0.015 -0.0226506 -0.000491184 -0.000117146 2.1168
0.185 0.015 -0.022208 -0.000449033 -0.000114801 2.0771
0.19 0.015 -0.0218022 -0.00041096 -0.000112656 2.04057
0.195 0.015 -0.0214299 -0.000376525 -0.000110692 2.00691
0.2 0.015 -0.021088 -0.000345343 -0.000108891 1.97587
0.205 0.015 -0.0207735 -0.000317081 -0.000107239 1.9472
0.21 0.015 -0.020484 -0.000291449 -0.00010572 1.9207
0.215 0.015 -0.0202172 -0.00026819 -0.000104324 1.89616
0.22 0.015 -0.0199711 -0.000247081 -0.000103039 1.87342
0.225 0.015 -0.0197436 -0.000227924 -0.000101854 1.85231
0.23 0.015 -0.0195332 -0.000210544 -0.00010076 1.83268
0.235 0.015 -0.0193382 -0.000194786 -9.97488e-05 1.8144
0.24 0.015 -0.0191572 -0.000180512 -9.88126e-05 1.79735
0.245 0.015 -0.0189889 -0.000167598 -9.79442e-05 1.78141
0.25 0.015 -0.018832 -0.000155933 -9.71371e-05 1.76648
0.255 0.015 -0.0186856 -0.000145419 -9.63854e-05 1.75246
0.26 0.015 -0.0185485 -0.000135965 -9.56835e-05 1.73926
0.265 0.015 -0.0184197 -0.000127492 -9.50264e-05 1.7268
0.27 0.015 -0.0182985 -0.000119924 -9.44093e-05 1.715
0.275 0.015 -0.0181839 -0.000113196 -9.38278e-05 1.70379
0.28 0.015 -0.0180753 -0.000107248 -9.3278e-05 1.6931
0.285 0.015 -0.0179719 -0.000102022 -9.27561e-05 1.68288
0.29 0.015 -0.0178731 -9.74695e-05 -9.22585e-05 1.67307
0.295 0.015 -0.0177783 -9.3542e-05 -9.17822e-05 1.6636
0.3 0.015 -0.0176869 -9.01969e-05 -9.13239e-05 1.65444
0.305 0.015 -0.0175983 -8.73939e-05 -9.08811e-05 1.64554
0.31 0.015 -0.0175122 -8.5096e-05 -9.04509e-05 1.63685
0.315 0.015 -0.017428 -8.32687e-05 -9.0031e-05 1.62833
0.32 0.015 -0.0173453 -8.18797e-05 -8.96191e-05 1.61996
0.325 0.015 -0.0172637 -8.08988e-05 -8.92131e-05 1.61168
0.33 0.015 -0.0171829 -8.02977e-05 -8.88111e-05 1.60347
0.335 0.015 -0.0171024 -8.00497e-05 -8.84112e-05 1.5953
0.34 0.015 -0.0170221 -8.01299e-05 -8.80116e-05 1.58715
0.345 0.015 -0.0169415 -8.05145e-05 -8.76109e-05 1.57898
0.35 0.015 -0.0168604 -8.11809e-05 -8.72075e-05 1.57077
0.355 0.015 -0.0167786 -8.21079e-05 -8.68002e-05 1.5625
0.36 0.015 -0.0166958 -8.32752e-05 -8.63876e-05 1.55415
0.365 0.015 -0.0166118 -8.46635e-05 -8.59685e-05 1.5457
0.37 0.015 -0.0165265 -8.62543e-05 -8.55421e-05 1.53713
0.375 0.015 -0.0164395 -8.80302e-05 -8.51071e-05 1.52844
0.38 0.015 -0.0163508 -8.99742e-05 -8.46629e-05 1.51959
0.385 0.015 -0.0162603 -9.20702e-05 -8.42086e-05 1.51059
0.39 0.015 -0.0161677 -9.43029e-05 -8.37434e-05 1.50141
0.395 0.015 -0.016073 -9.66574e-05 -8.32668e-05 1.49206
0.4 0.015 -0.015976 -9.91197e-05 -8.27781e-05 1.48251
0.405 0.015 -0.0158767 -0.000101676 -8.22768e-05 1.47277
0.41 0.015 -0.015775 -0.000104313 -8.17625e-05 1.46282
0.415 0.015 -0.0156707 -0.000107019 -8.12349e-05 1.45266
0.42 0.015 -0.015564 -0.000109782 -8.06936e-05 1.44228
0.425 0.015 -0.0154546 -0.00011259 -8.01383e-05 1.43168
0.43 0.015 -0.0153426 -0.000115432 -7.9569e-05 1.42087
0.435 0.015 -0.015228 -0.000118298 -7.89853e-05 1.40982
0.44 0.015 -0.0151107 -0.000121178 -7.83872e-05 1.39855
0.445 0.015 -0.0149907 -0.000124062 -7.77748e-05 1.38706
0.45 0.015 -0.014868 -0.000126941 -7.71479e-05 1.37533
0.455 0.015 -0.0147427 -0.000129807 -7.65067e-05 1.36338
0.46 0.015 -0.0146147 -0.000132651 -7.58511e-05 1.35121
0.465 0.015 -0.0144841 -0.000135466 -7.51814e-05 1.33882
0.47 0.015 -0.0143508 -0.000138245 -7.44977e-05 1.32621
0.475 0.015 -0.0142151 -0.000140981 -7.38002e-05 1.31338
0.48 0.015 -0.0140768 -0.000143667 -7.30892e-05 1.30034
0.485 0.015 -0.013936 -0.000146297 -7.23648e-05 1.28709
0.49 0.015 -0.0137929 -0.000148867 -7.16275e-05 1.27364
0.495 0.015 -0.0136473 -0.00015137 -7.08774e-05 1.25999
0.5 0.015 -0.0134995 -0.000153802 -7.0115e-05 1.24616
0.505 0.015 -0.0133495 -0.000156159 -6.93406e-05 1.23213
0.51 0.015 -0.0131974 -0.000158437 -6.85547e-05 1.21793
0.515 0.015 -0.0130432 -0.000160632 -6.77575e-05 1.20355
0.52 0.015 -0.0128869 -0.000162742 -6.69495e-05 1.18901
0.525 0.015 -0.0127288 -0.000164763 -6.61313e-05 1.17431
0.53 0.015 -0.0125689 -0.000166693 -6.53031e-05 1.15946
0.535 0.015 -0.0124072 -0.000168531 -6.44655e-05 1.14446
0.54 0.015 -0.0122439 -0.000170274 -6.36189e-05 1.12933
0.545 0.015 -0.012079 -0.000171921 -6.27639e-05 1.11407
0.55 0.015 -0.0119127 -0.000173471 -6.19009e-05 1.09868
0.555 0.015 -0.0117449 -0.000174923 -6.10303e-05 1.08319
0.56 0.015 -0.0115759 -0.000176277 -6.01527e-05 1.06758
0.565 0.015 -0.0114057 -0.000177533 -5.92686e-05 1.05188
0.57 0.015 -0.0112344 -0.000178691 -5.83785e-05 1.03609
0.575 0.015 -0.011062 -0.000179751 -5.74828e-05 1.02022
0.58 0.015 -0.0108888 -0.000180713 -5.6582e-05 1.00427
0.585 0.015 -0.0107147 -0.00018158 -5.56766e-05 0.988252
0.59 0.015 -0.0105398 -0.000182351 -5.47672e-05 0.972177
0.595 0.015 -0.0103644 -0.000183028 -5.38541e-05 0.95605
0.6 0.015 -0.0101883 -0.000183613 -5.29379e-05 0.939879
0.605 0.015 -0.0100118 -0.000184106 -5.20189e-05 0.923671
0.61 0.015 -0.00983483 -0.000184511 -5.10977e-05 0.907432
0.615 0.015 -0.00965758 -0.000184827 -5.01747e-05 0.891171
0.62 0.015 -0.00948009 -0.000185059 -4.92503e-05 0.874894
0.625 0.015 -0.00930245 -0.000185207 -4.8325e-05 0.858607
0.63 0.015 -0.00912472 -0.000185274 -4.73991e-05 0.842318
0.635 0.015 -0.00894699 -0.000185262 -4.64731e-05 0.826032
0.64 0.015 -0.00876933 -0.000185173 -4.55473e-05 0.809756
0.645 0.015 -0.00859181 -0.00018501 -4.46221e-05 0.793495
0.65 0.015 -0.00841449 -0.000184775 -4.3698e-05 0.777256
0.655 0.015 -0.00823744 -0.000184471 -4.27751e-05 0.761045
0.66 0.015 -0.00806072 -0.0001841 -4.1854e-05 0.744866
0.665 0.015 -0.0078844 -0.000183663 -4.09348e-05 0.728725
0.67 0.015 -0.00770854 -0.000183164 -4.0018e-05 0.712627
0.675 0.015 -0.00753319 -0.000182605 -3.91038e-05 0.696577
0.68 0.015 -0.0073584 -0.000181988 -3.81926e-05 0.68058
0.685 0.015 -0.00718424 -0.000181315 -3.72846e-05 0.66464
0.69 0.015 -0.00701075 -0.000180588 -3.63801e-05 0.648762
0.695 0.015 -0.00683799 -0.000179809 -3.54793e-05 0.63295
0.7 0.015 -0.00666599 -0.000178979 -3.45825e-05 0.617209
0.705 0.015 -0.00649481 -0.000178102 -3.369e-05 0.601542
0.71 0.015 -0.00632449 -0.000177177 -3.2802e-05 0.585953
0.715 0.015 -0.00615507 -0.000176207 -3.19188e-05 0.570446
0.72 0.015 -0.00598661 -0.000175193 -3.10404e-05 0.555026
0.725 0.015 -0.00581913 -0.000174135 -3.01673e-05 0.539694
0.73 0.015 -0.00565267 -0.000173035 -2.92995e-05 0.524456
0.735 0.015 -0.00548729 -0.000171894 -2.84374e-05 0.509315
0.74 0.015 -0.00532301 -0.000170712 -2.7581e-05 0.494274
0.745 0.015 -0.00515988 -0.000169489 -2.67306e-05 0.479337
0.75 0.015 -0.00499793 -0.000168226 -2.58865e-05 0.464506
0.755 0.015 -0.00483721 -0.000166921 -2.50487e-05 0.449787
0.76 0.015 -0.00467774 -0.000165576 -2.42176e-05 0.435182
0.765 0.015 -0.00451958 -0.00016419 -2.33933e-05 0.420695
0.77 0.015 -0.00436276 -0.00016276 -2.2576e-05 0.406329
0.775 0.015 -0.00420732 -0.000161288 -2.1766e-05 0.392089
0.78 0.015 -0.00405331 -0.00015977 -2.09634e-05 0.377979
0.785 0.015 -0.00390076 -0.000158206 -2.01685e-05 0.364002
0.79 0.015 -0.00374973 -0.000156594 -1.93816e-05 0.350162
0.795 0.015 -0.00360026 -0.000154932 -1.86028e-05 0.336465