Title=" Lid Driven Flow"
VARIABLES="X","Y","U","V","psi","xi"
ZONE T= "BOX", I= 201, J=201, F=POINT
0 0 0 0 0.00312759 0
0.005 0 0 0 0 0
0.01 0 0 0 0 0
0.015 0 0 0 0 161.891
0.02 0 0 0 0 176.123
0.025 0 0 0 0 155.602
0.03 0 0 0 0 133.211
0.035 0 0 0 0 115.69
0.04 0 0 0 0 102.835
0.045 0 0 0 0 93.3019
0.05 0 0 0 0 85.9796
0.055 0 0 0 0 80.1354
0.06 0 0 0 0 75.3107
0.065 0 0 0 0 71.2167
0.07 0 0 0 0 67.6657
0.075 0 0 0 0 64.5313
0.08 0 0 0 0 61.7252
0.085 0 0 0 0 59.184
0.09 0 0 0 0 56.8609
0.095 0 0 0 0 54.7208
0.1 0 0 0 0 52.7368
0.105 0 0 0 0 50.888
0.11 0 0 0 0 49.1577
0.115 0 0 0 0 47.5326
0.12 0 0 0 0 46.0018
0.125 0 0 0 0 44.5563
0.13 0 0 0 0 43.1885
0.135 0 0 0 0 41.8919
0.14 0 0 0 0 40.6609
0.145 0 0 0 0 39.4906
0.15 0 0 0 0 38.3768
0.155 0 0 0 0 37.3154
0.16 0 0 0 0 36.3029
0.165 0 0 0 0 35.3362
0.17 0 0 0 0 34.4123
0.175 0 0 0 0 33.5285
0.18 0 0 0 0 32.6821
0.185 0 0 0 0 31.8709
0.19 0 0 0 0 31.0926
0.195 0 0 0 0 30.3452
0.2 0 0 0 0 29.6266
0.205 0 0 0 0 28.9349
0.21 0 0 0 0 28.2686
0.215 0 0 0 0 27.6258
0.22 0 0 0 0 27.005
0.225 0 0 0 0 26.4048
0.23 0 0 0 0 25.8238
0.235 0 0 0 0 25.2606
0.24 0 0 0 0 24.714
0.245 0 0 0 0 24.1828
0.25 0 0 0 0 23.6658
0.255 0 0 0 0 23.1622
0.26 0 0 0 0 22.6708
0.265 0 0 0 0 22.1908
0.27 0 0 0 0 21.7212
0.275 0 0 0 0 21.2613
0.28 0 0 0 0 20.8103
0.285 0 0 0 0 20.3675
0.29 0 0 0 0 19.9323
0.295 0 0 0 0 19.5039
0.3 0 0 0 0 19.082
0.305 0 0 0 0 18.6658
0.31 0 0 0 0 18.255
0.315 0 0 0 0 17.849
0.32 0 0 0 0 17.4476
0.325 0 0 0 0 17.0503
0.33 0 0 0 0 16.6568
0.335 0 0 0 0 16.2668
0.34 0 0 0 0 15.8801
0.345 0 0 0 0 15.4963
0.35 0 0 0 0 15.1154
0.355 0 0 0 0 14.7372
0.36 0 0 0 0 14.3615
0.365 0 0 0 0 13.9883
0.37 0 0 0 0 13.6173
0.375 0 0 0 0 13.2487
0.38 0 0 0 0 12.8824
0.385 0 0 0 0 12.5183
0.39 0 0 0 0 12.1565
0.395 0 0 0 0 11.7971
0.4 0 0 0 0 11.4401
0.405 0 0 0 0 11.0855
0.41 0 0 0 0 10.7336
0.415 0 0 0 0 10.3844
0.42 0 0 0 0 10.038
0.425 0 0 0 0 9.69457
0.43 0 0 0 0 9.35434
0.435 0 0 0 0 9.01745
0.44 0 0 0 0 8.68408
0.445 0 0 0 0 8.35442
0.45 0 0 0 0 8.02868
0.455 0 0 0 0 7.70707
0.46 0 0 0 0 7.38979
0.465 0 0 0 0 7.07707
0.47 0 0 0 0 6.76911
0.475 0 0 0 0 6.46614
0.48 0 0 0 0 6.16836
0.485 0 0 0 0 5.87598
0.49 0 0 0 0 5.58922
0.495 0 0 0 0 5.30826
0.5 0 0 0 0 5.0333
0.505 0 0 0 0 4.76453
0.51 0 0 0 0 4.5021
0.515 0 0 0 0 4.24618
0.52 0 0 0 0 3.99692
0.525 0 0 0 0 3.75444
0.53 0 0 0 0 3.51888
0.535 0 0 0 0 3.29032
0.54 0 0 0 0 3.06887
0.545 0 0 0 0 2.85458
0.55 0 0 0 0 2.64752
0.555 0 0 0 0 2.44772
0.56 0 0 0 0 2.25521
0.565 0 0 0 0 2.06998
0.57 0 0 0 0 1.89202
0.575 0 0 0 0 1.72131
0.58 0 0 0 0 1.55779
0.585 0 0 0 0 1.40142
0.59 0 0 0 0 1.2521
0.595 0 0 0 0 1.10975
0.6 0 0 0 0 0.97426
0.605 0 0 0 0 0.845518
0.61 0 0 0 0 0.723393
0.615 0 0 0 0 0.607744
0.62 0 0 0 0 0.498421
0.625 0 0 0 0 0.395264
0.63 0 0 0 0 0.298107
0.635 0 0 0 0 0.206774
0.64 0 0 0 0 0.121087
0.645 0 0 0 0 0.0408593
0.65 0 0 0 0 -0.0340969
0.655 0 0 0 0 -0.103974
0.66 0 0 0 0 -0.168967
0.665 0 0 0 0 -0.22927
0.67 0 0 0 0 -0.285083
0.675 0 0 0 0 -0.336601
0.68 0 0 0 0 -0.384021
0.685 0 0 0 0 -0.427542
0.69 0 0 0 0 -0.467358
0.695 0 0 0 0 -0.503665
0.7 0 0 0 0 -0.536655
0.705 0 0 0 0 -0.566519
0.71 0 0 0 0 -0.593447
0.715 0 0 0 0 -0.617625
0.72 0 0 0 0 -0.639237
0.725 0 0 0 0 -0.658463
0.73 0 0 0 0 -0.675479
0.735 0 0 0 0 -0.690456
0.74 0 0 0 0 -0.703558
0.745 0 0 0 0 -0.714945
0.75 0 0 0 0 -0.724765
0.755 0 0 0 0 -0.73316
0.76 0 0 0 0 -0.740261
0.765 0 0 0 0 -0.746187
0.77 0 0 0 0 -0.751045
0.775 0 0 0 0 -0.754927
0.78 0 0 0 0 -0.757911
0.785 0 0 0 0 -0.760061
0.79 0 0 0 0 -0.761422
0.795 0 0 0 0 -0.762024
0.8 0 0 0 0 -0.761881
0.805 0 0 0 0 -0.760991
0.81 0 0 0 0 -0.759336
0.815 0 0 0 0 -0.756881
0.82 0 0 0 0 -0.753579
0.825 0 0 0 0 -0.749372
0.83 0 0 0 0 -0.744189
0.835 0 0 0 0 -0.737951
0.84 0 0 0 0 -0.730572
0.845 0 0 0 0 -0.721964
0.85 0 0 0 0 -0.712034
0.855 0 0 0 0 -0.700694
0.86 0 0 0 0 -0.687856
0.865 0 0 0 0 -0.673443
0.87 0 0 0 0 -0.657385
0.875 0 0 0 0 -0.639625
0.88 0 0 0 0 -0.620123
0.885 0 0 0 0 -0.598857
0.89 0 0 0 0 -0.575825
0.895 0 0 0 0 -0.551049
0.9 0 0 0 0 -0.524578
0.905 0 0 0 0 -0.496488
0.91 0 0 0 0 -0.466885
0.915 0 0 0 0 -0.435906
0.92 0 0 0 0 -0.40372
0.925 0 0 0 0 -0.370532
0.93 0 0 0 0 -0.336577
0.935 0 0 0 0 -0.30213
0.94 0 0 0 0 -0.267498
0.945 0 0 0 0 -0.233025
0.95 0 0 0 0 -0.199088
0.955 0 0 0 0 -0.166102
0.96 0 0 0 0 -0.134518
0.965 0 0 0 0 -0.10482
0.97 0 0 0 0 -0.077527
0.975 0 0 0 0 -0.0531911
0.98 0 0 0 0 -0.0323865
0.985 0 0 0 0 -0.0156935
0.99 0 0 0 0 -0.00365312
0.995 0 0 0 0 0.00333882
1 0 0 0 0 0.00527967
0 0.005 0 0 0 0
0.005 0.005 0 0 0 0
0.01 0.005 0 0 0 73.728
0.015 0.005 0 0 0 62.0663
0.02 0.005 0 0 0 45.7158
0.025 0.005 0 0 0 33.9477
0.03 0.005 0 0 0 26.0505
0.035 0.005 0 0 0 20.6233
0.04 0.005 0 0 0 16.7241
0.045 0.005 0 0 0 13.801
0.05 0.005 0 0 0 11.5341
0.055 0.005 0 0 0 9.73174
0.06 0.005 0 0 0 8.27305
0.065 0.005 0 0 0 7.07792
0.07 0.005 0 0 0 6.0904
0.075 0.005 0 0 0 5.26973
0.08 0.005 0 0 0 4.58509
0.085 0.005 0 0 0 4.01257
0.09 0.005 0 0 0 3.53316
0.095 0.005 0 0 0 3.13155
0.1 0.005 0 0 0 2.79524
0.105 0.005 0 0 0 2.51392
0.11 0.005 0 0 0 2.27909
0.115 0.005 0 0 0 2.08367
0.12 0.005 0 0 0 1.92174
0.125 0.005 0 0 0 1.78836
0.13 0.005 0 0 0 1.67941
0.135 0.005 0 0 0 1.59142
0.14 0.005 0 0 0 1.52149
0.145 0.005 0 0 0 1.46718
0.15 0.005 0 0 0 1.42644
0.155 0.005 0 0 0 1.39756
0.16 0.005 0 0 0 1.37908
0.165 0.005 0 0 0 1.36981
0.17 0.005 0 0 0 1.36872
0.175 0.005 0 0 0 1.37496
0.18 0.005 0 0 0 1.3878
0.185 0.005 0 0 0 1.40664
0.19 0.005 0 0 0 1.43096
0.195 0.005 0 0 0 1.46033
0.2 0.005 0 0 0 1.49438
0.205 0.005 0 0 0 1.53281
0.21 0.005 0 0 0 1.57533
0.215 0.005 0 0 0 1.62171
0.22 0.005 0 0 0 1.67176
0.225 0.005 0 0 0 1.72529
0.23 0.005 0 0 0 1.78214
0.235 0.005 0 0 0 1.84217
0.24 0.005 0 0 0 1.90525
0.245 0.005 0 0 0 1.97126
0.25 0.005 0 0 0 2.04007
0.255 0.005 0 0 0 2.11157
0.26 0.005 0 0 0 2.18566
0.265 0.005 0 0 0 2.26222
0.27 0.005 0 0 0 2.34115
0.275 0.005 0 0 0 2.42234
0.28 0.005 0 0 0 2.50568
0.285 0.005 0 0 0 2.59105
0.29 0.005 0 0 0 2.67834
0.295 0.005 0 0 0 2.76743
0.3 0.005 0 0 0 2.85819
0.305 0.005 0 0 0 2.9505
0.31 0.005 0 0 0 3.04422
0.315 0.005 0 0 0 3.13922
0.32 0.005 0 0 0 3.23535
0.325 0.005 0 0 0 3.33246
0.33 0.005 0 0 0 3.43041
0.335 0.005 0 0 0 3.52904
0.34 0.005 0 0 0 3.62818
0.345 0.005 0 0 0 3.72767
0.35 0.005 0 0 0 3.82734
0.355 0.005 0 0 0 3.92702
0.36 0.005 0 0 0 4.02652
0.365 0.005 0 0 0 4.12567
0.37 0.005 0 0 0 4.22427
0.375 0.005 0 0 0 4.32215
0.38 0.005 0 0 0 4.4191
0.385 0.005 0 0 0 4.51493
0.39 0.005 0 0 0 4.60945
0.395 0.005 0 0 0 4.70247
0.4 0.005 0 0 0 4.79377
0.405 0.005 0 0 0 4.88317
0.41 0.005 0 0 0 4.97046
0.415 0.005 0 0 0 5.05545
0.42 0.005 0 0 0 5.13793
0.425 0.005 0 0 0 5.21771
0.43 0.005 0 0 0 5.29461
0.435 0.005 0 0 0 5.36841
0.44 0.005 0 0 0 5.43895
0.445 0.005 0 0 0 5.50602
0.45 0.005 0 0 0 5.56945
0.455 0.005 0 0 0 5.62907
0.46 0.005 0 0 0 5.6847
0.465 0.005 0 0 0 5.73617
0.47 0.005 0 0 0 5.78333
0.475 0.005 0 0 0 5.82603
0.48 0.005 0 0 0 5.86413
0.485 0.005 0 0 0 5.89748
0.49 0.005 0 0 0 5.92595
0.495 0.005 0 0 0 5.94944
0.5 0.005 0 0 0 5.96784
0.505 0.005 0 0 0 5.98103
0.51 0.005 0 0 0 5.98895
0.515 0.005 0 0 0 5.99151
0.52 0.005 0 0 0 5.98864
0.525 0.005 0 0 0 5.9803
0.53 0.005 0 0 0 5.96644
0.535 0.005 0 0 0 5.94705
0.54 0.005 0 0 0 5.9221
0.545 0.005 0 0 0 5.89159
0.55 0.005 0 0 0 5.85555
0.555 0.005 0 0 0 5.81399
0.56 0.005 0 0 0 5.76696
0.565 0.005 0 0 0 5.71452
0.57 0.005 0 0 0 5.65673
0.575 0.005 0 0 0 5.59368
0.58 0.005 0 0 0 5.52548
0.585 0.005 0 0 0 5.45223
0.59 0.005 0 0 0 5.37407
0.595 0.005 0 0 0 5.29113
0.6 0.005 0 0 0 5.20357
0.605 0.005 0 0 0 5.11157
0.61 0.005 0 0 0 5.0153
0.615 0.005 0 0 0 4.91495
0.62 0.005 0 0 0 4.81074
0.625 0.005 0 0 0 4.70289
0.63 0.005 0 0 0 4.59161
0.635 0.005 0 0 0 4.47716
0.64 0.005 0 0 0 4.35977
0.645 0.005 0 0 0 4.23971
0.65 0.005 0 0 0 4.11723
0.655 0.005 0 0 0 3.99262
0.66 0.005 0 0 0 3.86613
0.665 0.005 0 0 0 3.73806
0.67 0.005 0 0 0 3.60869
0.675 0.005 0 0 0 3.4783
0.68 0.005 0 0 0 3.34719
0.685 0.005 0 0 0 3.21563
0.69 0.005 0 0 0 3.08392
0.695 0.005 0 0 0 2.95233
0.7 0.005 0 0 0 2.82116
0.705 0.005 0 0 0 2.69068
0.71 0.005 0 0 0 2.56115
0.715 0.005 0 0 0 2.43284
0.72 0.005 0 0 0 2.30602
0.725 0.005 0 0 0 2.18092
0.73 0.005 0 0 0 2.05778
0.735 0.005 0 0 0 1.93684
0.74 0.005 0 0 0 1.81832
0.745 0.005 0 0 0 1.70241
0.75 0.005 0 0 0 1.5893
0.755 0.005 0 0 0 1.47918
0.76 0.005 0 0 0 1.37222
0.765 0.005 0 0 0 1.26856
0.77 0.005 0 0 0 1.16833
0.775 0.005 0 0 0 1.07167
0.78 0.005 0 0 0 0.978671
0.785 0.005 0 0 0 0.889429
0.79 0.005 0 0 0 0.804018
0.795 0.005 0 0 0 0.722501
0.8 0.005 0 0 0 0.644921
0.805 0.005 0 0 0 0.571311
0.81 0.005 0 0 0 0.501688
0.815 0.005 0 0 0 0.436054
0.82 0.005 0 0 0 0.374398
0.825 0.005 0 0 0 0.316699
0.83 0.005 0 0 0 0.26292
0.835 0.005 0 0 0 0.213014
0.84 0.005 0 0 0 0.166925
0.845 0.005 0 0 0 0.124584
0.85 0.005 0 0 0 0.0859147
0.855 0.005 0 0 0 0.0508311
0.86 0.005 0 0 0 0.0192403
0.865 0.005 0 0 0 -0.00895801
0.87 0.005 0 0 0 -0.0338701
0.875 0.005 0 0 0 -0.0556078
0.88 0.005 0 0 0 -0.0742876
0.885 0.005 0 0 0 -0.0900302
0.89 0.005 0 0 0 -0.10296
0.895 0.005 0 0 0 -0.113204
0.9 0.005 0 0 0 -0.120893
0.905 0.005 0 0 0 -0.126159
0.91 0.005 0 0 0 -0.129138
0.915 0.005 0 0 0 -0.129968
0.92 0.005 0 0 0 -0.12879
0.925 0.005 0 0 0 -0.12575
0.93 0.005 0 0 0 -0.120999
0.935 0.005 0 0 0 -0.114693
0.94 0.005 0 0 0 -0.106998
0.945 0.005 0 0 0 -0.0980926
0.95 0.005 0 0 0 -0.0881694
0.955 0.005 0 0 0 -0.0774412
0.96 0.005 0 0 0 -0.0661469
0.965 0.005 0 0 0 -0.0545587
0.97 0.005 0 0 0 -0.0429918
0.975 0.005 0 0 0 -0.031816
0.98 0.005 0 0 0 -0.0214682
0.985 0.005 0 0 0 -0.0124637
0.99 0.005 0 0 0 -0.00539198
0.995 0.005 0 0 0 -0.00085952
1 0.005 0 0 0 0.000742585
0 0.01 0 0 0.000742585 0
0.005 0.01 0 0 0 -326.272
0.01 0.01 -0.18004 0.0775829 -0.0009216 -44.407
0.015 0.01 -0.184841 -0.0350153 -0.000775829 9.5255
0.02 0.01 -0.156345 -0.0351482 -0.000571448 19.1135
0.025 0.01 -0.127502 -0.0245816 -0.000424347 18.9886
0.03 0.01 -0.1041 -0.0166555 -0.000325632 16.8246
0.035 0.01 -0.0858889 -0.0116581 -0.000257791 14.4962
0.04 0.01 -0.0716702 -0.00852789 -0.000209051 12.4321
0.045 0.01 -0.0603973 -0.00648739 -0.000172512 10.686
0.05 0.01 -0.0513117 -0.00508656 -0.000144177 9.22275
0.055 0.01 -0.0438859 -0.00407636 -0.000121647 7.99448
0.06 0.01 -0.037751 -0.00331727 -0.000103413 6.95911
0.065 0.01 -0.0326423 -0.00272831 -8.8474e-05 6.08281
0.07 0.01 -0.0283646 -0.00226024 -7.613e-05 5.33885
0.075 0.01 -0.0247692 -0.00188163 -6.58715e-05 4.70597
0.08 0.01 -0.0217402 -0.00157144 -5.73136e-05 4.16704
0.085 0.01 -0.019185 -0.00131491 -5.01571e-05 3.70799
0.09 0.01 -0.0170286 -0.00110126 -4.41645e-05 3.31717
0.095 0.01 -0.0152093 -0.000922405 -3.91444e-05 2.98482
0.1 0.01 -0.0136761 -0.000772034 -3.49404e-05 2.7027
0.105 0.01 -0.0123862 -0.000645173 -3.1424e-05 2.46381
0.11 0.01 -0.011304 -0.000537815 -2.84886e-05 2.26219
0.115 0.01 -0.0103993 -0.000446693 -2.60458e-05 2.09278
0.12 0.01 -0.00964672 -0.000369127 -2.40216e-05 1.95123
0.125 0.01 -0.00902497 -0.0003029 -2.23545e-05 1.83384
0.13 0.01 -0.0085159 -0.000246167 -2.09926e-05 1.73743
0.135 0.01 -0.00810423 -0.000197395 -1.98927e-05 1.6593
0.14 0.01 -0.00777702 -0.000155301 -1.90186e-05 1.59713
0.145 0.01 -0.00752333 -0.00011881 -1.83397e-05 1.54894
0.15 0.01 -0.00733391 -8.70247e-05 -1.78305e-05 1.51305
0.155 0.01 -0.00720092 -5.91899e-05 -1.74694e-05 1.48802
0.16 0.01 -0.00711774 -3.46737e-05 -1.72385e-05 1.47261
0.165 0.01 -0.00707875 -1.2946e-05 -1.71226e-05 1.46578
0.17 0.01 -0.00707922 6.43756e-06 -1.7109e-05 1.46663
0.175 0.01 -0.00711512 2.38493e-05 -1.7187e-05 1.47439
0.18 0.01 -0.00718305 3.96008e-05 -1.73475e-05 1.48842
0.185 0.01 -0.00728009 5.3952e-05 -1.75829e-05 1.50814
0.19 0.01 -0.0074038 6.712e-05 -1.7887e-05 1.53309
0.195 0.01 -0.00755207 7.92851e-05 -1.82541e-05 1.56284
0.2 0.01 -0.00772311 9.05969e-05 -1.86798e-05 1.59704
0.205 0.01 -0.00791535 0.000101179 -1.91601e-05 1.63539
0.21 0.01 -0.00812748 0.000111133 -1.96915e-05 1.6776
0.215 0.01 -0.00835831 0.000120542 -2.02714e-05 1.72344
0.22 0.01 -0.00860682 0.000129474 -2.08969e-05 1.77271
0.225 0.01 -0.0088721 0.000137982 -2.15661e-05 1.82521
0.23 0.01 -0.00915332 0.000146111 -2.22767e-05 1.88078
0.235 0.01 -0.00944975 0.000153893 -2.30272e-05 1.93925
0.24 0.01 -0.00976068 0.000161356 -2.38157e-05 2.00048
0.245 0.01 -0.0100855 0.000168518 -2.46407e-05 2.06434
0.25 0.01 -0.0104235 0.000175393 -2.55008e-05 2.13069
0.255 0.01 -0.0107742 0.00018199 -2.63946e-05 2.19941
0.26 0.01 -0.011137 0.000188316 -2.73207e-05 2.27038
0.265 0.01 -0.0115113 0.00019437 -2.82778e-05 2.34347
0.27 0.01 -0.0118965 0.000200153 -2.92644e-05 2.41857
0.275 0.01 -0.0122921 0.00020566 -3.02793e-05 2.49555
0.28 0.01 -0.0126974 0.000210888 -3.1321e-05 2.57431
0.285 0.01 -0.013112 0.000215828 -3.23882e-05 2.6547
0.29 0.01 -0.0135351 0.000220472 -3.34793e-05 2.73661
0.295 0.01 -0.0139663 0.000224812 -3.45929e-05 2.81992
0.3 0.01 -0.0144048 0.000228836 -3.57274e-05 2.90448
0.305 0.01 -0.0148499 0.000232534 -3.68813e-05 2.99017
0.31 0.01 -0.0153011 0.000235894 -3.80528e-05 3.07686
0.315 0.01 -0.0157576 0.000238905 -3.92402e-05 3.16439
0.32 0.01 -0.0162187 0.000241554 -4.04418e-05 3.25264
0.325 0.01 -0.0166837 0.000243829 -4.16558e-05 3.34144
0.33 0.01 -0.0171518 0.000245718 -4.28802e-05 3.43066
0.335 0.01 -0.0176223 0.000247209 -4.4113e-05 3.52014
0.34 0.01 -0.0180943 0.000248291 -4.53523e-05 3.60973
0.345 0.01 -0.0185671 0.000248952 -4.65959e-05 3.69926
0.35 0.01 -0.0190398 0.000249182 -4.78418e-05 3.78857
0.355 0.01 -0.0195115 0.00024897 -4.90878e-05 3.8775
0.36 0.01 -0.0199815 0.000248307 -5.03316e-05 3.96589
0.365 0.01 -0.0204488 0.000247183 -5.15709e-05 4.05356
0.37 0.01 -0.0209125 0.000245591 -5.28035e-05 4.14035
0.375 0.01 -0.0213717 0.000243524 -5.40269e-05 4.22608
0.38 0.01 -0.0218256 0.000240975 -5.52388e-05 4.31058
0.385 0.01 -0.0222732 0.000237939 -5.64367e-05 4.39369
0.39 0.01 -0.0227136 0.000234411 -5.76182e-05 4.47523
0.395 0.01 -0.0231459 0.000230389 -5.87809e-05 4.55502
0.4 0.01 -0.0235691 0.000225869 -5.99222e-05 4.6329
0.405 0.01 -0.0239823 0.000220853 -6.10397e-05 4.70869
0.41 0.01 -0.0243846 0.000215339 -6.21308e-05 4.78223
0.415 0.01 -0.0247751 0.000209329 -6.31932e-05 4.85334
0.42 0.01 -0.0251529 0.000202827 -6.42242e-05 4.92187
0.425 0.01 -0.025517 0.000195837 -6.52215e-05 4.98765
0.43 0.01 -0.0258667 0.000188363 -6.61827e-05 5.05052
0.435 0.01 -0.026201 0.000180413 -6.71053e-05 5.11033
0.44 0.01 -0.026519 0.000171996 -6.79869e-05 5.16693
0.445 0.01 -0.02682 0.000163121 -6.88254e-05 5.22016
0.45 0.01 -0.0271031 0.000153799 -6.96183e-05 5.26989
0.455 0.01 -0.0273676 0.000144042 -7.03635e-05 5.31598
0.46 0.01 -0.0276127 0.000133866 -7.10588e-05 5.35831
0.465 0.01 -0.0278377 0.000123285 -7.17023e-05 5.39673
0.47 0.01 -0.0280418 0.000112315 -7.22918e-05 5.43115
0.475 0.01 -0.0282245 0.000100976 -7.28256e-05 5.46144
0.48 0.01 -0.028385 8.9287e-05 -7.33017e-05 5.48751
0.485 0.01 -0.0285229 7.72689e-05 -7.37186e-05 5.50925
0.49 0.01 -0.0286376 6.49441e-05 -7.40746e-05 5.52658
0.495 0.01 -0.0287286 5.23365e-05 -7.43682e-05 5.53942
0.5 0.01 -0.0287954 3.9471e-05 -7.45981e-05 5.5477
0.505 0.01 -0.0288376 2.6374e-05 -7.47631e-05 5.55136
0.51 0.01 -0.028855 1.3073e-05 -7.4862e-05 5.55035
0.515 0.01 -0.0288471 -4.03449e-07 -7.4894e-05 5.54462
0.52 0.01 -0.0288138 -1.40254e-05 -7.48582e-05 5.53415
0.525 0.01 -0.0287549 -2.77621e-05 -7.47539e-05 5.5189
0.53 0.01 -0.0286702 -4.15818e-05 -7.45807e-05 5.49888
0.535 0.01 -0.0285598 -5.54518e-05 -7.43383e-05 5.47407
0.54 0.01 -0.0284234 -6.93385e-05 -7.40264e-05 5.44449
0.545 0.01 -0.0282613 -8.32078e-05 -7.36451e-05 5.41016
0.55 0.01 -0.0280736 -9.70249e-05 -7.31945e-05 5.37112
0.555 0.01 -0.0278603 -0.000110755 -7.2675e-05 5.3274
0.56 0.01 -0.0276218 -0.000124361 -7.20872e-05 5.27906
0.565 0.01 -0.0273584 -0.000137808 -7.14316e-05 5.22617
0.57 0.01 -0.0270704 -0.00015106 -7.07093e-05 5.1688
0.575 0.01 -0.0267583 -0.000164081 -6.99212e-05 5.10705
0.58 0.01 -0.0264225 -0.000176835 -6.90687e-05 5.041
0.585 0.01 -0.0260637 -0.000189285 -6.81531e-05 4.97077
0.59 0.01 -0.0256824 -0.000201398 -6.7176e-05 4.89649
0.595 0.01 -0.0252793 -0.000213138 -6.61393e-05 4.81828
0.6 0.01 -0.0248552 -0.000224471 -6.50449e-05 4.73628
0.605 0.01 -0.0244109 -0.000235366 -6.38948e-05 4.65065
0.61 0.01 -0.0239472 -0.000245789 -6.26914e-05 4.56154
0.615 0.01 -0.0234651 -0.00025571 -6.14371e-05 4.46914
0.62 0.01 -0.0229654 -0.000265101 -6.01345e-05 4.3736
0.625 0.01 -0.0224493 -0.000273933 -5.87863e-05 4.27513
0.63 0.01 -0.0219178 -0.000282181 -5.73953e-05 4.17392
0.635 0.01 -0.021372 -0.000289821 -5.59646e-05 4.07016
0.64 0.01 -0.020813 -0.00029683 -5.44973e-05 3.96407
0.645 0.01 -0.020242 -0.00030319 -5.29965e-05 3.85586
0.65 0.01 -0.0196602 -0.000308882 -5.14656e-05 3.74575
0.655 0.01 -0.0190688 -0.000313892 -4.99079e-05 3.63397
0.66 0.01 -0.0184692 -0.000318207 -4.83268e-05 3.52074
0.665 0.01 -0.0178625 -0.000321816 -4.67259e-05 3.40629
0.67 0.01 -0.0172501 -0.000324714 -4.51088e-05 3.29085
0.675 0.01 -0.0166334 -0.000326894 -4.34789e-05 3.17467
0.68 0.01 -0.0160134 -0.000328357 -4.184e-05 3.05796
0.685 0.01 -0.0153917 -0.000329102 -4.01955e-05 2.94098
0.69 0.01 -0.0147695 -0.000329133 -3.85491e-05 2.82395
0.695 0.01 -0.0141481 -0.000328458 -3.69043e-05 2.70711
0.7 0.01 -0.0135288 -0.000327086 -3.52646e-05 2.59068
0.705 0.01 -0.0129127 -0.000325029 -3.36336e-05 2.47489
0.71 0.01 -0.0123012 -0.000322303 -3.20145e-05 2.35996
0.715 0.01 -0.0116955 -0.000318926 -3.04106e-05 2.2461
0.72 0.01 -0.0110967 -0.000314917 -2.88253e-05 2.13354
0.725 0.01 -0.010506 -0.0003103 -2.72615e-05 2.02246
0.73 0.01 -0.00992441 -0.000305099 -2.57224e-05 1.91307
0.735 0.01 -0.009353 -0.000299341 -2.42106e-05 1.80556
0.74 0.01 -0.00879278 -0.000293057 -2.2729e-05 1.7001
0.745 0.01 -0.00824467 -0.000286276 -2.12801e-05 1.59686
0.75 0.01 -0.00770956 -0.000279032 -1.98663e-05 1.49601
0.755 0.01 -0.00718828 -0.000271357 -1.84899e-05 1.3977
0.76 0.01 -0.00668158 -0.000263289 -1.71528e-05 1.30206
0.765 0.01 -0.00619016 -0.000254862 -1.5857e-05 1.20923
0.77 0.01 -0.00571467 -0.000246114 -1.46042e-05 1.11931
0.775 0.01 -0.00525565 -0.000237082 -1.33959e-05 1.03242
0.78 0.01 -0.00481362 -0.000227804 -1.22334e-05 0.948653
0.785 0.01 -0.00438899 -0.000218318 -1.11179e-05 0.868085
0.79 0.01 -0.00398215 -0.000208662 -1.00502e-05 0.790787
0.795 0.01 -0.00359337 -0.000198873 -9.03127e-06 0.716818
0.8 0.01 -0.0032229 -0.000188988 -8.06152e-06 0.646223
0.805 0.01 -0.00287089 -0.000179042 -7.1414e-06 0.579037
0.81 0.01 -0.00253743 -0.000169073 -6.2711e-06 0.51528
0.815 0.01 -0.00222257 -0.000159112 -5.45067e-06 0.454965
0.82 0.01 -0.00192628 -0.000149193 -4.67997e-06 0.398092
0.825 0.01 -0.00164847 -0.000139348 -3.95872e-06 0.344649
0.83 0.01 -0.00138899 -0.000129605 -3.28648e-06 0.294615
0.835 0.01 -0.00114767 -0.000119992 -2.66266e-06 0.247961
0.84 0.01 -0.000924237 -0.000110536 -2.08655e-06 0.204645
0.845 0.01 -0.000718416 -0.000101261 -1.55728e-06 0.164619
0.85 0.01 -0.000529865 -9.21895e-05 -1.07391e-06 0.127825
0.855 0.01 -0.000358207 -8.33411e-05 -6.35369e-07 0.0941993
0.86 0.01 -0.000203028 -7.47344e-05 -2.40483e-07 0.0636686
0.865 0.01 -6.38802e-05 -6.63859e-05 1.11997e-07 0.0361544
0.87 0.01 5.97164e-05 -5.83101e-05 4.23398e-07 0.011572
0.875 0.01 0.000168268 -5.05197e-05 6.9512e-07 -0.0101691
0.88 0.01 0.000262305 -4.30258e-05 9.28617e-07 -0.0291644
0.885 0.01 0.00034238 -3.58382e-05 1.1254e-06 -0.0455139
0.89 0.01 0.000409065 -2.89651e-05 1.28702e-06 -0.0593221
0.895 0.01 0.00046295 -2.2414e-05 1.41507e-06 -0.0706973
0.9 0.01 0.000504642 -1.61916e-05 1.51118e-06 -0.0797515
0.905 0.01 0.000534761 -1.03045e-05 1.57701e-06 -0.0866005
0.91 0.01 0.000553944 -4.75922e-06 1.61425e-06 -0.0913638
0.915 0.01 0.000562845 4.36566e-07 1.62462e-06 -0.094165
0.92 0.01 0.000562136 5.27384e-06 1.6099e-06 -0.095132
0.925 0.01 0.000552512 9.74119e-06 1.5719e-06 -0.0943977
0.93 0.01 0.000534695 1.38239e-05 1.5125e-06 -0.0921012
0.935 0.01 0.00050944 1.75024e-05 1.43367e-06 -0.0883888
0.94 0.01 0.000477549 2.07513e-05 1.33749e-06 -0.0834156
0.945 0.01 0.000439874 2.35369e-05 1.22617e-06 -0.0773478
0.95 0.01 0.000397343 2.58152e-05 1.10213e-06 -0.0703649
0.955 0.01 0.000350968 2.7529e-05 9.68022e-07 -0.0626624
0.96 0.01 0.000301874 2.86039e-05 8.26842e-07 -0.0544557
0.965 0.01 0.000251327 2.89445e-05 6.81988e-07 -0.0459828
0.97 0.01 0.00020076 2.84288e-05 5.37401e-07 -0.0375075
0.975 0.01 0.000151805 2.69048e-05 3.97702e-07 -0.0293201
0.98 0.01 0.000106324 2.41906e-05 2.68354e-07 -0.0217331
0.985 0.01 6.6403e-05 2.00954e-05 1.55797e-07 -0.0150639
0.99 0.01 3.42775e-05 1.45053e-05 6.73999e-08 -0.0095887
0.995 0.01 1.20701e-05 7.66823e-06 1.07439e-08 -0.00543376
1 0.01 1.07236e-06 1.07439e-06 -9.28244e-09 -0.0023439
0 0.015 0 0 -0.00085789 0
0.005 0.015 0 0 0 -255.968
0.01 0.015 -0.152844 0.184841 -0.0018004 -79.262
0.015 0.015 -0.206208 -0.0236946 -0.00184841 -16.6412
0.02 0.015 -0.204538 -0.0573382 -0.00156345 2.31596
0.025 0.015 -0.184523 -0.0522448 -0.00127502 7.93138
0.03 0.015 -0.161029 -0.0416135 -0.001041 9.25789
0.035 0.015 -0.139045 -0.0324303 -0.000858889 9.1274
0.04 0.015 -0.119855 -0.0254916 -0.000716702 8.50831
0.045 0.015 -0.10349 -0.0203585 -0.000603973 7.75422
0.05 0.015 -0.0896244 -0.0165113 -0.000513117 6.9985
0.055 0.015 -0.0778786 -0.0135607 -0.000438859 6.29077
0.06 0.015 -0.0679117 -0.0112436 -0.00037751 5.64749
0.065 0.015 -0.0594379 -0.00938639 -0.000326423 5.07164
0.07 0.015 -0.0522226 -0.00787309 -0.000283646 4.56073
0.075 0.015 -0.0460731 -0.00662438 -0.000247692 4.11016
0.08 0.015 -0.0408304 -0.00558419 -0.000217402 3.71464
0.085 0.015 -0.0363619 -0.00471158 -0.00019185 3.36886
0.09 0.015 -0.0325564 -0.00397566 -0.000170286 3.06772
0.095 0.015 -0.0293199 -0.00335249 -0.000152093 2.80649
0.1 0.015 -0.0265727 -0.00282309 -0.000136761 2.58084
0.105 0.015 -0.024247 -0.00237209 -0.000123862 2.38681
0.11 0.015 -0.0222848 -0.00198694 -0.000113039 2.22087
0.115 0.015 -0.0206367 -0.00165722 -0.000103992 2.07984
0.12 0.015 -0.0192605 -0.00137427 -9.6467e-05 1.96089
0.125 0.015 -0.0181201 -0.0011308 -9.02495e-05 1.8615
0.13 0.015 -0.0171845 -0.000920721 -8.51588e-05 1.77947
0.135 0.015 -0.0164275 -0.000738864 -8.10421e-05 1.71282
0.14 0.015 -0.0158264 -0.000580881 -7.777e-05 1.65985
0.145 0.015 -0.015362 -0.000443095 -7.52331e-05 1.61905
0.15 0.015 -0.015018 -0.000322396 -7.33389e-05 1.58911
0.155 0.015 -0.0147803 -0.000216155 -7.2009e-05 1.56887
0.16 0.015 -0.0146369 -0.000122148 -7.11772e-05 1.55734
0.165 0.015 -0.0145776 -3.84968e-05 -7.07874e-05 1.55364
0.17 0.015 -0.0145937 3.63854e-05 -7.07921e-05 1.55702
0.175 0.015 -0.0146778 0.000103836 -7.11511e-05 1.5668
0.18 0.015 -0.0148235 0.000164982 -7.18303e-05 1.58242
0.185 0.015 -0.0150253 0.000220769 -7.28008e-05 1.60338
0.19 0.015 -0.0152787 0.000271992 -7.40379e-05 1.62922
0.195 0.015 -0.0155795 0.000319315 -7.55206e-05 1.65958
0.2 0.015 -0.0159243 0.000363291 -7.7231e-05 1.69412
0.205 0.015 -0.0163101 0.000404381 -7.91534e-05 1.73252
0.21 0.015 -0.0167343 0.000442964 -8.12747e-05 1.77454
0.215 0.015 -0.0171945 0.000479351 -8.3583e-05 1.81993
0.22 0.015 -0.0176886 0.0005138 -8.60681e-05 1.86847
0.225 0.015 -0.018215 0.000546514 -8.87209e-05 1.91998
0.23 0.015 -0.0187717 0.00057766 -9.15332e-05 1.97427
0.235 0.015 -0.0193575 0.000607367 -9.44974e-05 2.03118
0.24 0.015 -0.0199707 0.000635736 -9.76068e-05 2.09055
0.245 0.015 -0.0206101 0.000662843 -0.000100855 2.15223
0.25 0.015 -0.0212744 0.000688743 -0.000104235 2.21609
0.255 0.015 -0.0219624 0.000713472 -0.000107742 2.28199
0.26 0.015 -0.0226728 0.000737052 -0.00011137 2.34979
0.265 0.015 -0.0234044 0.000759493 -0.000115113 2.41936
0.27 0.015 -0.0241561 0.000780794 -0.000118965 2.49057
0.275 0.015 -0.0249267 0.000800944 -0.000122921 2.5633
0.28 0.015 -0.025715 0.000819926 -0.000126974 2.63741
0.285 0.015 -0.0265197 0.000837717 -0.00013112 2.71277
0.29 0.015 -0.0273396 0.000854288 -0.000135351 2.78925
0.295 0.015 -0.0281734 0.000869607 -0.000139663 2.86672
0.3 0.015 -0.02902 0.000883638 -0.000144048 2.94505
0.305 0.015 -0.0298778 0.000896344 -0.000148499 3.02408
0.31 0.015 -0.0307456 0.000907684 -0.000153011 3.1037
0.315 0.015 -0.0316219 0.000917618 -0.000157576 3.18375
0.32 0.015 -0.0325055 0.000926106 -0.000162187 3.26409
0.325 0.015 -0.0333946 0.000933105 -0.000166837 3.34458
0.33 0.015 -0.034288 0.000938577 -0.000171519 3.42508
0.335 0.015 -0.0351841 0.00094248 -0.000176223 3.50543
0.34 0.015 -0.0360812 0.000944777 -0.000180943 3.58548
0.345 0.015 -0.0369779 0.000945432 -0.000185671 3.66509
0.35 0.015 -0.0378724 0.000944409 -0.000190398 3.74411
0.355 0.015 -0.0387633 0.000941678 -0.000195115 3.82238
0.36 0.015 -0.0396487 0.000937207 -0.000199815 3.89974
0.365 0.015 -0.0405271 0.000930971 -0.000204488 3.97606
0.37 0.015 -0.0413967 0.000922947 -0.000209125 4.05116
0.375 0.015 -0.0422558 0.000913114 -0.000213717 4.12491
0.38 0.015 -0.0431027 0.000901457 -0.000218256 4.19716
0.385 0.015 -0.0439357 0.000887963 -0.000222732 4.26774
0.39 0.015 -0.044753 0.000872623 -0.000227136 4.33652
0.395 0.015 -0.045553 0.000855433 -0.000231459 4.40334
0.4 0.015 -0.0463339 0.000836393 -0.000235691 4.46807
0.405 0.015 -0.047094 0.000815509 -0.000239823 4.53056
0.41 0.015 -0.0478316 0.000792788 -0.000243846 4.59068
0.415 0.015 -0.0485451 0.000768244 -0.000247751 4.64827
0.42 0.015 -0.0492327 0.000741896 -0.000251529 4.70323
0.425 0.015 -0.0498929 0.000713768 -0.000255171 4.75541
0.43 0.015 -0.0505241 0.000683886 -0.000258667 4.8047
0.435 0.015 -0.0511246 0.000652285 -0.00026201 4.85097
0.44 0.015 -0.0516931 0.000619002 -0.000265191 4.89411
0.445 0.015 -0.052228 0.000584081 -0.000268201 4.93401
0.45 0.015 -0.0527278 0.000547568 -0.000271032 4.97057
0.455 0.015 -0.0531913 0.000509518 -0.000273677 5.00368
0.46 0.015 -0.0536171 0.000469987 -0.000276128 5.03327
0.465 0.015 -0.0540039 0.00042904 -0.000278377 5.05924
0.47 0.015 -0.0543506 0.000386742 -0.000280419 5.08151
0.475 0.015 -0.0546561 0.000343167 -0.000282245 5.10001
0.48 0.015 -0.0549192 0.000298393 -0.000283851 5.11467
0.485 0.015 -0.0551391 0.0002525 -0.00028523 5.12545
0.49 0.015 -0.0553148 0.000205575 -0.000286377 5.13228
0.495 0.015 -0.0554456 0.000157709 -0.000287286 5.13512
0.5 0.015 -0.0555307 0.000108997 -0.000287954 5.13395
0.505 0.015 -0.0555695 5.95388e-05 -0.000288377 5.12872
0.51 0.015 -0.0555615 9.43621e-06 -0.00028855 5.11943
0.515 0.015 -0.0555062 -4.12034e-05 -0.000288472 5.10605
0.52 0.015 -0.0554033 -9.22698e-05 -0.000288139 5.0886
0.525 0.015 -0.0552526 -0.000143649 -0.00028755 5.06706
0.53 0.015 -0.055054 -0.000195226 -0.000286703 5.04147
0.535 0.015 -0.0548075 -0.00024688 -0.000285598 5.01183
0.54 0.015 -0.054513 -0.00029849 -0.000284235 4.97819
0.545 0.015 -0.0541709 -0.000349932 -0.000282614 4.94057
0.55 0.015 -0.0537815 -0.000401081 -0.000280737 4.89903
0.555 0.015 -0.0533451 -0.00045181 -0.000278604 4.85362
0.56 0.015 -0.0528624 -0.000501992 -0.000276219 4.8044
0.565 0.015 -0.0523339 -0.000551499 -0.000273585 4.75146
0.57 0.015 -0.0517605 -0.000600202 -0.000270705 4.69487
0.575 0.015 -0.051143 -0.000647974 -0.000267584 4.63471
0.58 0.015 -0.0504823 -0.000694688 -0.000264226 4.57109
0.585 0.015 -0.0497797 -0.000740219 -0.000260638 4.50412
0.59 0.015 -0.0490362 -0.000784443 -0.000256825 4.43389
0.595 0.015 -0.0482533 -0.000827239 -0.000252794 4.36053
0.6 0.015 -0.0474323 -0.000868489 -0.000248553 4.28417
0.605 0.015 -0.0465748 -0.00090808 -0.00024411 4.20494
0.61 0.015 -0.0456822 -0.000945899 -0.000239473 4.12298
0.615 0.015 -0.0447565 -0.000981842 -0.000234651 4.03843
0.62 0.015 -0.0437993 -0.00101581 -0.000229655 3.95145
0.625 0.015 -0.0428125 -0.0010477 -0.000224494 3.86219
0.63 0.015 -0.0417981 -0.00107743 -0.000219179 3.77081
0.635 0.015 -0.0407581 -0.00110492 -0.00021372 3.67748
0.64 0.015 -0.0396946 -0.00113009 -0.00020813 3.58238
0.645 0.015 -0.0386097 -0.00115287 -0.00020242 3.48566
0.65 0.015 -0.0375057 -0.00117321 -0.000196602 3.38752
0.655 0.015 -0.0363848 -0.00119105 -0.000190689 3.28813
0.66 0.015 -0.0352493 -0.00120636 -0.000184692 3.18767
0.665 0.015 -0.0341015 -0.00121909 -0.000178626 3.08633
0.67 0.015 -0.0329438 -0.00122923 -0.000172502 2.98429
0.675 0.015 -0.0317785 -0.00123675 -0.000166334 2.88174
0.68 0.015 -0.030608 -0.00124167 -0.000160135 2.77886
0.685 0.015 -0.0294346 -0.00124397 -0.000153918 2.67585
0.69 0.015 -0.0282608 -0.00124368 -0.000147696 2.57288
0.695 0.015 -0.0270888 -0.00124082 -0.000141482 2.47014
0.7 0.015 -0.0259209 -0.00123543 -0.000135288 2.3678
0.705 0.015 -0.0247594 -0.00122755 -0.000129128 2.26606
0.71 0.015 -0.0236066 -0.00121724 -0.000123013 2.16508
0.715 0.015 -0.0224647 -0.00120455 -0.000116956 2.06503
0.72 0.015 -0.0213356 -0.00118957 -0.000110968 1.96608
0.725 0.015 -0.0202216 -0.00117236 -0.00010506 1.86839
0.73 0.015 -0.0191246 -0.00115303 -9.92444e-05 1.77213
0.735 0.015 -0.0180464 -0.00113166 -9.35303e-05 1.67744
0.74 0.015 -0.0169888 -0.00110836 -8.7928e-05 1.58446
0.745 0.015 -0.0159537 -0.00108324 -8.24469e-05 1.49334
0.75 0.015 -0.0149426 -0.00105641 -7.70958e-05 1.4042
0.755 0.015 -0.013957 -0.001028 -7.1883e-05 1.31717
0.76 0.015 -0.0129983 -0.000998133 -6.6816e-05 1.23237
0.765 0.015 -0.0120678 -0.000966931 -6.19018e-05 1.1499
0.77 0.015 -0.0111667 -0.00093453 -5.71468e-05 1.06986
0.775 0.015 -0.010296 -0.000901064 -5.25566e-05 0.992345
0.78 0.015 -0.00945674 -0.000866667 -4.81363e-05 0.917433
0.785 0.015 -0.00864965 -0.000831476 -4.389e-05 0.845199
0.79 0.015 -0.00787546 -0.000795628 -3.98216e-05 0.775706
0.795 0.015 -0.00713473 -0.000759255 -3.59338e-05 0.709009
0.8 0.015 -0.00642792 -0.000722492 -3.2229e-05 0.645152
0.805 0.015 -0.00575537 -0.00068547 -2.87089e-05 0.584173
0.81 0.015 -0.00511729 -0.000648316 -2.53743e-05 0.526097
0.815 0.015 -0.0045138 -0.000611155 -2.22257e-05 0.470944
0.82 0.015 -0.00394488 -0.000574106 -1.92628e-05 0.418723
0.825 0.015 -0.00341042 -0.000537283 -1.64846e-05 0.369433
0.83 0.015 -0.0029102 -0.000500798 -1.38899e-05 0.323067
0.835 0.015 -0.00244391 -0.000464752 -1.14766e-05 0.279609