Title=" Lid Driven Flow"
VARIABLES="X","Y","U","V","psi","xi"
ZONE T= "BOX", I= 257, J=257, F=POINT
0 0 0 0 -306.128 0
0.00390625 0 0 0 0 0
0.0078125 0 0 0 0 0
0.0117188 0 0 0 0 -416.843
0.015625 0 0 0 0 -326.388
0.0195313 0 0 0 0 -259.799
0.0234375 0 0 0 0 -212.824
0.0273438 0 0 0 0 -179.538
0.03125 0 0 0 0 -155.465
0.0351563 0 0 0 0 -137.586
0.0390625 0 0 0 0 -123.933
0.0429688 0 0 0 0 -113.222
0.046875 0 0 0 0 -104.61
0.0507813 0 0 0 0 -97.5323
0.0546875 0 0 0 0 -91.6036
0.0585938 0 0 0 0 -86.5557
0.0625 0 0 0 0 -82.1969
0.0664063 0 0 0 0 -78.3879
0.0703125 0 0 0 0 -75.0247
0.0742188 0 0 0 0 -72.0286
0.078125 0 0 0 0 -69.3388
0.0820313 0 0 0 0 -66.9075
0.0859375 0 0 0 0 -64.6966
0.0898438 0 0 0 0 -62.6756
0.09375 0 0 0 0 -60.8192
0.0976563 0 0 0 0 -59.1067
0.101563 0 0 0 0 -57.521
0.105469 0 0 0 0 -56.0475
0.109375 0 0 0 0 -54.6738
0.113281 0 0 0 0 -53.3895
0.117188 0 0 0 0 -52.1855
0.121094 0 0 0 0 -51.0539
0.125 0 0 0 0 -49.988
0.128906 0 0 0 0 -48.9818
0.132813 0 0 0 0 -48.03
0.136719 0 0 0 0 -47.1281
0.140625 0 0 0 0 -46.2719
0.144531 0 0 0 0 -45.4578
0.148438 0 0 0 0 -44.6825
0.152344 0 0 0 0 -43.9431
0.15625 0 0 0 0 -43.237
0.160156 0 0 0 0 -42.5618
0.164063 0 0 0 0 -41.9153
0.167969 0 0 0 0 -41.2957
0.171875 0 0 0 0 -40.7011
0.175781 0 0 0 0 -40.1299
0.179688 0 0 0 0 -39.5807
0.183594 0 0 0 0 -39.052
0.1875 0 0 0 0 -38.5428
0.191406 0 0 0 0 -38.0517
0.195313 0 0 0 0 -37.5779
0.199219 0 0 0 0 -37.1202
0.203125 0 0 0 0 -36.6779
0.207031 0 0 0 0 -36.2501
0.210938 0 0 0 0 -35.836
0.214844 0 0 0 0 -35.4348
0.21875 0 0 0 0 -35.0461
0.222656 0 0 0 0 -34.669
0.226563 0 0 0 0 -34.3031
0.230469 0 0 0 0 -33.9479
0.234375 0 0 0 0 -33.6027
0.238281 0 0 0 0 -33.2671
0.242188 0 0 0 0 -32.9408
0.246094 0 0 0 0 -32.6232
0.25 0 0 0 0 -32.314
0.253906 0 0 0 0 -32.0129
0.257813 0 0 0 0 -31.7194
0.261719 0 0 0 0 -31.4333
0.265625 0 0 0 0 -31.1542
0.269531 0 0 0 0 -30.8818
0.273438 0 0 0 0 -30.6159
0.277344 0 0 0 0 -30.3563
0.28125 0 0 0 0 -30.1026
0.285156 0 0 0 0 -29.8547
0.289063 0 0 0 0 -29.6123
0.292969 0 0 0 0 -29.3751
0.296875 0 0 0 0 -29.1431
0.300781 0 0 0 0 -28.916
0.304688 0 0 0 0 -28.6936
0.308594 0 0 0 0 -28.4758
0.3125 0 0 0 0 -28.2624
0.316406 0 0 0 0 -28.0532
0.320313 0 0 0 0 -27.8481
0.324219 0 0 0 0 -27.647
0.328125 0 0 0 0 -27.4496
0.332031 0 0 0 0 -27.256
0.335938 0 0 0 0 -27.0658
0.339844 0 0 0 0 -26.8791
0.34375 0 0 0 0 -26.6957
0.347656 0 0 0 0 -26.5154
0.351563 0 0 0 0 -26.3383
0.355469 0 0 0 0 -26.1641
0.359375 0 0 0 0 -25.9928
0.363281 0 0 0 0 -25.8243
0.367188 0 0 0 0 -25.6585
0.371094 0 0 0 0 -25.4952
0.375 0 0 0 0 -25.3345
0.378906 0 0 0 0 -25.1761
0.382813 0 0 0 0 -25.0201
0.386719 0 0 0 0 -24.8664
0.390625 0 0 0 0 -24.7148
0.394531 0 0 0 0 -24.5652
0.398438 0 0 0 0 -24.4177
0.402344 0 0 0 0 -24.2722
0.40625 0 0 0 0 -24.1285
0.410156 0 0 0 0 -23.9866
0.414063 0 0 0 0 -23.8464
0.417969 0 0 0 0 -23.7079
0.421875 0 0 0 0 -23.5709
0.425781 0 0 0 0 -23.4355
0.429688 0 0 0 0 -23.3015
0.433594 0 0 0 0 -23.1689
0.4375 0 0 0 0 -23.0376
0.441406 0 0 0 0 -22.9076
0.445313 0 0 0 0 -22.7787
0.449219 0 0 0 0 -22.651
0.453125 0 0 0 0 -22.5243
0.457031 0 0 0 0 -22.3986
0.460938 0 0 0 0 -22.2738
0.464844 0 0 0 0 -22.1499
0.46875 0 0 0 0 -22.0267
0.472656 0 0 0 0 -21.9043
0.476563 0 0 0 0 -21.7826
0.480469 0 0 0 0 -21.6615
0.484375 0 0 0 0 -21.5409
0.488281 0 0 0 0 -21.4207
0.492188 0 0 0 0 -21.301
0.496094 0 0 0 0 -21.1816
0.5 0 0 0 0 -21.0625
0.503906 0 0 0 0 -20.9436
0.507813 0 0 0 0 -20.8248
0.511719 0 0 0 0 -20.7061
0.515625 0 0 0 0 -20.5875
0.519531 0 0 0 0 -20.4687
0.523438 0 0 0 0 -20.3499
0.527344 0 0 0 0 -20.2309
0.53125 0 0 0 0 -20.1117
0.535156 0 0 0 0 -19.9921
0.539063 0 0 0 0 -19.8723
0.542969 0 0 0 0 -19.752
0.546875 0 0 0 0 -19.6313
0.550781 0 0 0 0 -19.5101
0.554688 0 0 0 0 -19.3883
0.558594 0 0 0 0 -19.266
0.5625 0 0 0 0 -19.143
0.566406 0 0 0 0 -19.0194
0.570313 0 0 0 0 -18.8951
0.574219 0 0 0 0 -18.7701
0.578125 0 0 0 0 -18.6444
0.582031 0 0 0 0 -18.518
0.585938 0 0 0 0 -18.3909
0.589844 0 0 0 0 -18.263
0.59375 0 0 0 0 -18.1345
0.597656 0 0 0 0 -18.0053
0.601563 0 0 0 0 -17.8755
0.605469 0 0 0 0 -17.7452
0.609375 0 0 0 0 -17.6143
0.613281 0 0 0 0 -17.483
0.617188 0 0 0 0 -17.3514
0.621094 0 0 0 0 -17.2195
0.625 0 0 0 0 -17.0875
0.628906 0 0 0 0 -16.9554
0.632813 0 0 0 0 -16.8236
0.636719 0 0 0 0 -16.6919
0.640625 0 0 0 0 -16.5608
0.644531 0 0 0 0 -16.4303
0.648438 0 0 0 0 -16.3006
0.652344 0 0 0 0 -16.172
0.65625 0 0 0 0 -16.0447
0.660156 0 0 0 0 -15.9188
0.664063 0 0 0 0 -15.7948
0.667969 0 0 0 0 -15.6728
0.671875 0 0 0 0 -15.5531
0.675781 0 0 0 0 -15.436
0.679688 0 0 0 0 -15.3217
0.683594 0 0 0 0 -15.2107
0.6875 0 0 0 0 -15.1032
0.691406 0 0 0 0 -14.9995
0.695313 0 0 0 0 -14.9
0.699219 0 0 0 0 -14.805
0.703125 0 0 0 0 -14.7147
0.707031 0 0 0 0 -14.6296
0.710938 0 0 0 0 -14.5499
0.714844 0 0 0 0 -14.476
0.71875 0 0 0 0 -14.4083
0.722656 0 0 0 0 -14.3469
0.726563 0 0 0 0 -14.2923
0.730469 0 0 0 0 -14.2446
0.734375 0 0 0 0 -14.2043
0.738281 0 0 0 0 -14.1716
0.742188 0 0 0 0 -14.1468
0.746094 0 0 0 0 -14.1301
0.75 0 0 0 0 -14.1217
0.753906 0 0 0 0 -14.122
0.757813 0 0 0 0 -14.1311
0.761719 0 0 0 0 -14.1494
0.765625 0 0 0 0 -14.1769
0.769531 0 0 0 0 -14.214
0.773438 0 0 0 0 -14.2607
0.777344 0 0 0 0 -14.3175
0.78125 0 0 0 0 -14.3844
0.785156 0 0 0 0 -14.4617
0.789063 0 0 0 0 -14.5497
0.792969 0 0 0 0 -14.6486
0.796875 0 0 0 0 -14.7587
0.800781 0 0 0 0 -14.8803
0.804688 0 0 0 0 -15.0138
0.808594 0 0 0 0 -15.1595
0.8125 0 0 0 0 -15.318
0.816406 0 0 0 0 -15.4897
0.820313 0 0 0 0 -15.6753
0.824219 0 0 0 0 -15.8753
0.828125 0 0 0 0 -16.0906
0.832031 0 0 0 0 -16.322
0.835938 0 0 0 0 -16.5704
0.839844 0 0 0 0 -16.837
0.84375 0 0 0 0 -17.123
0.847656 0 0 0 0 -17.4298
0.851563 0 0 0 0 -17.759
0.855469 0 0 0 0 -18.1122
0.859375 0 0 0 0 -18.4914
0.863281 0 0 0 0 -18.8988
0.867188 0 0 0 0 -19.3366
0.871094 0 0 0 0 -19.8075
0.875 0 0 0 0 -20.3143
0.878906 0 0 0 0 -20.8602
0.882813 0 0 0 0 -21.4484
0.886719 0 0 0 0 -22.0829
0.890625 0 0 0 0 -22.7675
0.894531 0 0 0 0 -23.5066
0.898438 0 0 0 0 -24.3051
0.902344 0 0 0 0 -25.1681
0.90625 0 0 0 0 -26.1012
0.910156 0 0 0 0 -27.1106
0.914063 0 0 0 0 -28.203
0.917969 0 0 0 0 -29.3857
0.921875 0 0 0 0 -30.6672
0.925781 0 0 0 0 -32.0565
0.929688 0 0 0 0 -33.5643
0.933594 0 0 0 0 -35.2028
0.9375 0 0 0 0 -36.9862
0.941406 0 0 0 0 -38.9319
0.945313 0 0 0 0 -41.0611
0.949219 0 0 0 0 -43.4003
0.953125 0 0 0 0 -45.9836
0.957031 0 0 0 0 -48.8558
0.960938 0 0 0 0 -52.0768
0.964844 0 0 0 0 -55.7293
0.96875 0 0 0 0 -59.9296
0.972656 0 0 0 0 -64.8463
0.976563 0 0 0 0 -70.7315
0.980469 0 0 0 0 -77.9782
0.984375 0 0 0 0 -87.2308
0.988281 0 0 0 0 -99.6224
0.992188 0 0 0 0 -117.345
0.996094 0 0 0 0 -145.212
1 0 0 0 0 -195.762
0 0.00390625 0 0 0 0
0.00390625 0.00390625 0 0 0 0
0.0078125 0.00390625 0 0 0 -0.000284884
0.0117188 0.00390625 0 0 0 -0.000758043
0.015625 0.00390625 0 0 0 -0.00111699
0.0195313 0.00390625 0 0 0 -0.0011964
0.0234375 0.00390625 0 0 0 -0.000920534
0.0273438 0.00390625 0 0 0 -0.000263614
0.03125 0.00390625 0 0 0 0.000773502
0.0351563 0.00390625 0 0 0 0.00217595
0.0390625 0.00390625 0 0 0 0.00392174
0.0429688 0.00390625 0 0 0 0.00598551
0.046875 0.00390625 0 0 0 0.00834071
0.0507813 0.00390625 0 0 0 0.0109608
0.0546875 0.00390625 0 0 0 0.0138201
0.0585938 0.00390625 0 0 0 0.0168941
0.0625 0.00390625 0 0 0 0.0201597
0.0664063 0.00390625 0 0 0 0.0235953
0.0703125 0.00390625 0 0 0 0.0271812
0.0742188 0.00390625 0 0 0 0.0308989
0.078125 0.00390625 0 0 0 0.0347318
0.0820313 0.00390625 0 0 0 0.0386647
0.0859375 0.00390625 0 0 0 0.0426838
0.0898438 0.00390625 0 0 0 0.0467767
0.09375 0.00390625 0 0 0 0.0509322
0.0976563 0.00390625 0 0 0 0.0551405
0.101563 0.00390625 0 0 0 0.0593927
0.105469 0.00390625 0 0 0 0.0636809
0.109375 0.00390625 0 0 0 0.0679982
0.113281 0.00390625 0 0 0 0.0723385
0.117188 0.00390625 0 0 0 0.0766966
0.121094 0.00390625 0 0 0 0.0810677
0.125 0.00390625 0 0 0 0.0854478
0.128906 0.00390625 0 0 0 0.0898335
0.132813 0.00390625 0 0 0 0.0942217
0.136719 0.00390625 0 0 0 0.0986099
0.140625 0.00390625 0 0 0 0.102996
0.144531 0.00390625 0 0 0 0.107377
0.148438 0.00390625 0 0 0 0.111753
0.152344 0.00390625 0 0 0 0.116122
0.15625 0.00390625 0 0 0 0.120483
0.160156 0.00390625 0 0 0 0.124834
0.164063 0.00390625 0 0 0 0.129175
0.167969 0.00390625 0 0 0 0.133505
0.171875 0.00390625 0 0 0 0.137824
0.175781 0.00390625 0 0 0 0.14213
0.179688 0.00390625 0 0 0 0.146424
0.183594 0.00390625 0 0 0 0.150705
0.1875 0.00390625 0 0 0 0.154972
0.191406 0.00390625 0 0 0 0.159226
0.195313 0.00390625 0 0 0 0.163465
0.199219 0.00390625 0 0 0 0.16769
0.203125 0.00390625 0 0 0 0.1719
0.207031 0.00390625 0 0 0 0.176095
0.210938 0.00390625 0 0 0 0.180274
0.214844 0.00390625 0 0 0 0.184437
0.21875 0.00390625 0 0 0 0.188584
0.222656 0.00390625 0 0 0 0.192714
0.226563 0.00390625 0 0 0 0.196827
0.230469 0.00390625 0 0 0 0.200923
0.234375 0.00390625 0 0 0 0.205001
0.238281 0.00390625 0 0 0 0.20906
0.242188 0.00390625 0 0 0 0.213101
0.246094 0.00390625 0 0 0 0.217122
0.25 0.00390625 0 0 0 0.221124
0.253906 0.00390625 0 0 0 0.225105
0.257813 0.00390625 0 0 0 0.229066
0.261719 0.00390625 0 0 0 0.233005
0.265625 0.00390625 0 0 0 0.236922
0.269531 0.00390625 0 0 0 0.240818
0.273438 0.00390625 0 0 0 0.24469
0.277344 0.00390625 0 0 0 0.248538
0.28125 0.00390625 0 0 0 0.252363
0.285156 0.00390625 0 0 0 0.256162
0.289063 0.00390625 0 0 0 0.259937
0.292969 0.00390625 0 0 0 0.263685
0.296875 0.00390625 0 0 0 0.267406
0.300781 0.00390625 0 0 0 0.271101
0.304688 0.00390625 0 0 0 0.274767
0.308594 0.00390625 0 0 0 0.278404
0.3125 0.00390625 0 0 0 0.282012
0.316406 0.00390625 0 0 0 0.285589
0.320313 0.00390625 0 0 0 0.289136
0.324219 0.00390625 0 0 0 0.292651
0.328125 0.00390625 0 0 0 0.296133
0.332031 0.00390625 0 0 0 0.299582
0.335938 0.00390625 0 0 0 0.302997
0.339844 0.00390625 0 0 0 0.306378
0.34375 0.00390625 0 0 0 0.309722
0.347656 0.00390625 0 0 0 0.31303
0.351563 0.00390625 0 0 0 0.316301
0.355469 0.00390625 0 0 0 0.319534
0.359375 0.00390625 0 0 0 0.322727
0.363281 0.00390625 0 0 0 0.325881
0.367188 0.00390625 0 0 0 0.328994
0.371094 0.00390625 0 0 0 0.332065
0.375 0.00390625 0 0 0 0.335094
0.378906 0.00390625 0 0 0 0.338079
0.382813 0.00390625 0 0 0 0.341019
0.386719 0.00390625 0 0 0 0.343915
0.390625 0.00390625 0 0 0 0.346764
0.394531 0.00390625 0 0 0 0.349566
0.398438 0.00390625 0 0 0 0.352319
0.402344 0.00390625 0 0 0 0.355023
0.40625 0.00390625 0 0 0 0.357678
0.410156 0.00390625 0 0 0 0.360281
0.414063 0.00390625 0 0 0 0.362832
0.417969 0.00390625 0 0 0 0.36533
0.421875 0.00390625 0 0 0 0.367773
0.425781 0.00390625 0 0 0 0.370162
0.429688 0.00390625 0 0 0 0.372494
0.433594 0.00390625 0 0 0 0.37477
0.4375 0.00390625 0 0 0 0.376987
0.441406 0.00390625 0 0 0 0.379145
0.445313 0.00390625 0 0 0 0.381243
0.449219 0.00390625 0 0 0 0.383279
0.453125 0.00390625 0 0 0 0.385254
0.457031 0.00390625 0 0 0 0.387165
0.460938 0.00390625 0 0 0 0.389011
0.464844 0.00390625 0 0 0 0.390793
0.46875 0.00390625 0 0 0 0.392508
0.472656 0.00390625 0 0 0 0.394155
0.476563 0.00390625 0 0 0 0.395735
0.480469 0.00390625 0 0 0 0.397245
0.484375 0.00390625 0 0 0 0.398684
0.488281 0.00390625 0 0 0 0.400052
0.492188 0.00390625 0 0 0 0.401348
0.496094 0.00390625 0 0 0 0.402571
0.5 0.00390625 0 0 0 0.403719
0.503906 0.00390625 0 0 0 0.404792
0.507813 0.00390625 0 0 0 0.405788
0.511719 0.00390625 0 0 0 0.406708
0.515625 0.00390625 0 0 0 0.407549
0.519531 0.00390625 0 0 0 0.408311
0.523438 0.00390625 0 0 0 0.408994
0.527344 0.00390625 0 0 0 0.409595
0.53125 0.00390625 0 0 0 0.410115
0.535156 0.00390625 0 0 0 0.410553
0.539063 0.00390625 0 0 0 0.410907
0.542969 0.00390625 0 0 0 0.411177
0.546875 0.00390625 0 0 0 0.411362
0.550781 0.00390625 0 0 0 0.411462
0.554688 0.00390625 0 0 0 0.411475
0.558594 0.00390625 0 0 0 0.411401
0.5625 0.00390625 0 0 0 0.411239
0.566406 0.00390625 0 0 0 0.410989
0.570313 0.00390625 0 0 0 0.41065
0.574219 0.00390625 0 0 0 0.410221
0.578125 0.00390625 0 0 0 0.409702
0.582031 0.00390625 0 0 0 0.409092
0.585938 0.00390625 0 0 0 0.408391
0.589844 0.00390625 0 0 0 0.407598
0.59375 0.00390625 0 0 0 0.406713
0.597656 0.00390625 0 0 0 0.405736
0.601563 0.00390625 0 0 0 0.404665
0.605469 0.00390625 0 0 0 0.403501
0.609375 0.00390625 0 0 0 0.402244
0.613281 0.00390625 0 0 0 0.400892
0.617188 0.00390625 0 0 0 0.399447
0.621094 0.00390625 0 0 0 0.397908
0.625 0.00390625 0 0 0 0.396274
0.628906 0.00390625 0 0 0 0.394546
0.632813 0.00390625 0 0 0 0.392723
0.636719 0.00390625 0 0 0 0.390805
0.640625 0.00390625 0 0 0 0.388794
0.644531 0.00390625 0 0 0 0.386688
0.648438 0.00390625 0 0 0 0.384487
0.652344 0.00390625 0 0 0 0.382193
0.65625 0.00390625 0 0 0 0.379804
0.660156 0.00390625 0 0 0 0.377322
0.664063 0.00390625 0 0 0 0.374747
0.667969 0.00390625 0 0 0 0.372079
0.671875 0.00390625 0 0 0 0.369318
0.675781 0.00390625 0 0 0 0.366465
0.679688 0.00390625 0 0 0 0.36352
0.683594 0.00390625 0 0 0 0.360484
0.6875 0.00390625 0 0 0 0.357358
0.691406 0.00390625 0 0 0 0.354142
0.695313 0.00390625 0 0 0 0.350836
0.699219 0.00390625 0 0 0 0.347442
0.703125 0.00390625 0 0 0 0.34396
0.707031 0.00390625 0 0 0 0.340391
0.710938 0.00390625 0 0 0 0.336735
0.714844 0.00390625 0 0 0 0.332995
0.71875 0.00390625 0 0 0 0.32917
0.722656 0.00390625 0 0 0 0.325261
0.726563 0.00390625 0 0 0 0.32127
0.730469 0.00390625 0 0 0 0.317198
0.734375 0.00390625 0 0 0 0.313045
0.738281 0.00390625 0 0 0 0.308813
0.742188 0.00390625 0 0 0 0.304503
0.746094 0.00390625 0 0 0 0.300116
0.75 0.00390625 0 0 0 0.295653
0.753906 0.00390625 0 0 0 0.291116
0.757813 0.00390625 0 0 0 0.286506
0.761719 0.00390625 0 0 0 0.281824
0.765625 0.00390625 0 0 0 0.277071
0.769531 0.00390625 0 0 0 0.272249
0.773438 0.00390625 0 0 0 0.267359
0.777344 0.00390625 0 0 0 0.262403
0.78125 0.00390625 0 0 0 0.257382
0.785156 0.00390625 0 0 0 0.252298
0.789063 0.00390625 0 0 0 0.247152
0.792969 0.00390625 0 0 0 0.241945
0.796875 0.00390625 0 0 0 0.23668
0.800781 0.00390625 0 0 0 0.231358
0.804688 0.00390625 0 0 0 0.225981
0.808594 0.00390625 0 0 0 0.22055
0.8125 0.00390625 0 0 0 0.215067
0.816406 0.00390625 0 0 0 0.209534
0.820313 0.00390625 0 0 0 0.203953
0.824219 0.00390625 0 0 0 0.198326
0.828125 0.00390625 0 0 0 0.192655
0.832031 0.00390625 0 0 0 0.186942
0.835938 0.00390625 0 0 0 0.181189
0.839844 0.00390625 0 0 0 0.175399
0.84375 0.00390625 0 0 0 0.169575
0.847656 0.00390625 0 0 0 0.163719
0.851563 0.00390625 0 0 0 0.157833
0.855469 0.00390625 0 0 0 0.151922
0.859375 0.00390625 0 0 0 0.145989
0.863281 0.00390625 0 0 0 0.140038
0.867188 0.00390625 0 0 0 0.134071
0.871094 0.00390625 0 0 0 0.128095
0.875 0.00390625 0 0 0 0.122113
0.878906 0.00390625 0 0 0 0.116132
0.882813 0.00390625 0 0 0 0.110156
0.886719 0.00390625 0 0 0 0.104193
0.890625 0.00390625 0 0 0 0.0982493
0.894531 0.00390625 0 0 0 0.0923327
0.898438 0.00390625 0 0 0 0.086452
0.902344 0.00390625 0 0 0 0.0806164
0.90625 0.00390625 0 0 0 0.0748365
0.910156 0.00390625 0 0 0 0.0691236
0.914063 0.00390625 0 0 0 0.0634902
0.917969 0.00390625 0 0 0 0.05795
0.921875 0.00390625 0 0 0 0.0525179
0.925781 0.00390625 0 0 0 0.0472103
0.929688 0.00390625 0 0 0 0.042045
0.933594 0.00390625 0 0 0 0.0370412
0.9375 0.00390625 0 0 0 0.0322197
0.941406 0.00390625 0 0 0 0.0276032
0.945313 0.00390625 0 0 0 0.0232157
0.949219 0.00390625 0 0 0 0.0190829
0.953125 0.00390625 0 0 0 0.0152323
0.957031 0.00390625 0 0 0 0.0116926
0.960938 0.00390625 0 0 0 0.00849387
0.964844 0.00390625 0 0 0 0.00566666
0.96875 0.00390625 0 0 0 0.0032417
0.972656 0.00390625 0 0 0 0.00124851
0.976563 0.00390625 0 0 0 -0.000286523
0.980469 0.00390625 0 0 0 -0.0013433
0.984375 0.00390625 0 0 0 -0.00191354
0.988281 0.00390625 0 0 0 -0.00201034
0.992188 0.00390625 0 0 0 -0.0016853
0.996094 0.00390625 0 0 0 -0.00105848
1 0.00390625 0 0 0 -0.000365573
0 0.0078125 0 0 -0.000365573 0
0.00390625 0.0078125 0 0 0 -0.000284884
0.0078125 0.0078125 7.40544e-07 -7.40276e-07 2.17349e-09 -0.000188416
0.0117188 0.0078125 1.7723e-06 -8.12605e-07 5.78343e-09 -9.22696e-05
0.015625 0.0078125 2.31228e-06 -4.28077e-07 8.52204e-09 7.28788e-05
0.0195313 0.0078125 1.89981e-06 1.91862e-07 9.12793e-09 0.000401343
0.0234375 0.0078125 2.94056e-07 9.1094e-07 7.02336e-09 0.000960533
0.0273438 0.0078125 -2.60687e-06 1.65436e-06 2.01156e-09 0.00178847
0.03125 0.0078125 -6.82037e-06 2.38243e-06 -5.90092e-09 0.00290124
0.0351563 0.0078125 -1.23137e-05 3.07451e-06 -1.66007e-08 0.00430036
0.0390625 0.0078125 -1.9025e-05 3.72034e-06 -2.99199e-08 0.00597809
0.0429688 0.0078125 -2.68766e-05 4.31547e-06 -4.56652e-08 0.00792107
0.046875 0.0078125 -3.5783e-05 4.85879e-06 -6.36339e-08 0.0101127
0.0507813 0.0078125 -4.56561e-05 5.35109e-06 -8.36238e-08 0.0125348
0.0546875 0.0078125 -5.64082e-05 5.79431e-06 -1.05439e-07 0.0151683
0.0585938 0.0078125 -6.79545e-05 6.19105e-06 -1.28891e-07 0.0179945
0.0625 0.0078125 -8.02138e-05 6.54424e-06 -1.53806e-07 0.0209949
0.0664063 0.0078125 -9.31095e-05 6.85699e-06 -1.80018e-07 0.0241519
0.0703125 0.0078125 -0.00010657 7.13245e-06 -2.07376e-07 0.0274489
0.0742188 0.0078125 -0.00012053 7.37371e-06 -2.3574e-07 0.0308701
0.078125 0.0078125 -0.000134928 7.58378e-06 -2.64983e-07 0.0344012
0.0820313 0.0078125 -0.000149708 7.76557e-06 -2.94989e-07 0.0380287
0.0859375 0.0078125 -0.000164819 7.92179e-06 -3.25652e-07 0.0417403
0.0898438 0.0078125 -0.000180215 8.05503e-06 -3.56879e-07 0.0455247
0.09375 0.0078125 -0.000195855 8.16769e-06 -3.88583e-07 0.0493719
0.0976563 0.0078125 -0.000211702 8.26199e-06 -4.2069e-07 0.0532726
0.101563 0.0078125 -0.000227721 8.33998e-06 -4.53132e-07 0.0572185
0.105469 0.0078125 -0.000243884 8.40356e-06 -4.85849e-07 0.0612022
0.109375 0.0078125 -0.000260164 8.45443e-06 -5.18788e-07 0.0652171
0.113281 0.0078125 -0.000276538 8.49416e-06 -5.51902e-07 0.0692573
0.117188 0.0078125 -0.000292984 8.52415e-06 -5.85152e-07 0.0733177
0.121094 0.0078125 -0.000309487 8.54567e-06 -6.18502e-07 0.0773937
0.125 0.0078125 -0.000326029 8.55984e-06 -6.5192e-07 0.0814812
0.128906 0.0078125 -0.000342596 8.56766e-06 -6.8538e-07 0.0855767
0.132813 0.0078125 -0.000359178 8.57001e-06 -7.1886e-07 0.0896772
0.136719 0.0078125 -0.000375764 8.56768e-06 -7.5234e-07 0.0937799
0.140625 0.0078125 -0.000392346 8.56133e-06 -7.85802e-07 0.0978826
0.144531 0.0078125 -0.000408914 8.55156e-06 -8.19232e-07 0.101983
0.148438 0.0078125 -0.000425464 8.53888e-06 -8.52619e-07 0.10608
0.152344 0.0078125 -0.000441989 8.52371e-06 -8.85951e-07 0.110172
0.15625 0.0078125 -0.000458485 8.50642e-06 -9.19219e-07 0.114256
0.160156 0.0078125 -0.000474948 8.48733e-06 -9.52416e-07 0.118334
0.164063 0.0078125 -0.000491373 8.46668e-06 -9.85536e-07 0.122402
0.167969 0.0078125 -0.000507758 8.4447e-06 -1.01857e-06 0.126461
0.171875 0.0078125 -0.000524101 8.42155e-06 -1.05152e-06 0.130509
0.175781 0.0078125 -0.000540399 8.39738e-06 -1.08438e-06 0.134547
0.179688 0.0078125 -0.000556649 8.37229e-06 -1.11714e-06 0.138573
0.183594 0.0078125 -0.00057285 8.34636e-06 -1.1498e-06 0.142587
0.1875 0.0078125 -0.000589001 8.31967e-06 -1.18236e-06 0.146588
0.191406 0.0078125 -0.000605098 8.29224e-06 -1.21481e-06 0.150577
0.195313 0.0078125 -0.000621142 8.26412e-06 -1.24715e-06 0.154551
0.199219 0.0078125 -0.000637131 8.23531e-06 -1.27939e-06 0.158512
0.203125 0.0078125 -0.000653062 8.20583e-06 -1.31151e-06 0.162459
0.207031 0.0078125 -0.000668936 8.17566e-06 -1.34351e-06 0.166391
0.210938 0.0078125 -0.000684749 8.1448e-06 -1.3754e-06 0.170309
0.214844 0.0078125 -0.000700502 8.11323e-06 -1.40716e-06 0.17421
0.21875 0.0078125 -0.000716191 8.08093e-06 -1.4388e-06 0.178096
0.222656 0.0078125 -0.000731817 8.04788e-06 -1.47031e-06 0.181966
0.226563 0.0078125 -0.000747377 8.01405e-06 -1.50169e-06 0.18582
0.230469 0.0078125 -0.00076287 7.97942e-06 -1.53294e-06 0.189656
0.234375 0.0078125 -0.000778293 7.94395e-06 -1.56405e-06 0.193475
0.238281 0.0078125 -0.000793647 7.90762e-06 -1.59502e-06 0.197276
0.242188 0.0078125 -0.000808927 7.87039e-06 -1.62585e-06 0.201059
0.246094 0.0078125 -0.000824134 7.83223e-06 -1.65653e-06 0.204823
0.25 0.0078125 -0.000839265 7.79312e-06 -1.68706e-06 0.208568
0.253906 0.0078125 -0.000854318 7.75302e-06 -1.71744e-06 0.212294
0.257813 0.0078125 -0.000869291 7.7119e-06 -1.74765e-06 0.215999
0.261719 0.0078125 -0.000884183 7.66973e-06 -1.77771e-06 0.219684
0.265625 0.0078125 -0.00089899 7.62649e-06 -1.8076e-06 0.223348
0.269531 0.0078125 -0.000913712 7.58213e-06 -1.83732e-06 0.22699
0.273438 0.0078125 -0.000928345 7.53664e-06 -1.86686e-06 0.230609
0.277344 0.0078125 -0.000942888 7.48999e-06 -1.89622e-06 0.234206
0.28125 0.0078125 -0.000957338 7.44214e-06 -1.9254e-06 0.23778
0.285156 0.0078125 -0.000971693 7.39307e-06 -1.95439e-06 0.24133
0.289063 0.0078125 -0.000985951 7.34275e-06 -1.98319e-06 0.244855
0.292969 0.0078125 -0.00100011 7.29115e-06 -2.01178e-06 0.248356
0.296875 0.0078125 -0.00101416 7.23825e-06 -2.04018e-06 0.25183
0.300781 0.0078125 -0.00102812 7.18402e-06 -2.06836e-06 0.255279
0.304688 0.0078125 -0.00104196 7.12844e-06 -2.09633e-06 0.2587
0.308594 0.0078125 -0.00105569 7.07147e-06 -2.12408e-06 0.262094
0.3125 0.0078125 -0.00106931 7.0131e-06 -2.15161e-06 0.265459
0.316406 0.0078125 -0.00108282 6.95329e-06 -2.1789e-06 0.268796
0.320313 0.0078125 -0.0010962 6.89203e-06 -2.20596e-06 0.272103
0.324219 0.0078125 -0.00110947 6.82928e-06 -2.23278e-06 0.275379
0.328125 0.0078125 -0.00112261 6.76503e-06 -2.25935e-06 0.278625
0.332031 0.0078125 -0.00113563 6.69924e-06 -2.28566e-06 0.281839
0.335938 0.0078125 -0.00114851 6.6319e-06 -2.31172e-06 0.28502
0.339844 0.0078125 -0.00116126 6.56298e-06 -2.33751e-06 0.288169
0.34375 0.0078125 -0.00117388 6.49246e-06 -2.36303e-06 0.291283
0.347656 0.0078125 -0.00118636 6.42032e-06 -2.38827e-06 0.294363
0.351563 0.0078125 -0.00119869 6.34653e-06 -2.41322e-06 0.297407
0.355469 0.0078125 -0.00121088 6.27106e-06 -2.43788e-06 0.300415
0.359375 0.0078125 -0.00122292 6.19391e-06 -2.46225e-06 0.303386
0.363281 0.0078125 -0.00123481 6.11504e-06 -2.48631e-06 0.306319
0.367188 0.0078125 -0.00124655 6.03444e-06 -2.51006e-06 0.309214
0.371094 0.0078125 -0.00125812 5.95209e-06 -2.53349e-06 0.312069
0.375 0.0078125 -0.00126953 5.86796e-06 -2.5566e-06 0.314884
0.378906 0.0078125 -0.00128078 5.78204e-06 -2.57937e-06 0.317658
0.382813 0.0078125 -0.00129186 5.69431e-06 -2.60181e-06 0.32039
0.386719 0.0078125 -0.00130277 5.60474e-06 -2.6239e-06 0.323079
0.390625 0.0078125 -0.0013135 5.51333e-06 -2.64564e-06 0.325724
0.394531 0.0078125 -0.00132406 5.42006e-06 -2.66701e-06 0.328325
0.398438 0.0078125 -0.00133443 5.32491e-06 -2.68802e-06 0.330881
0.402344 0.0078125 -0.00134461 5.22786e-06 -2.70865e-06 0.33339
0.40625 0.0078125 -0.00135461 5.1289e-06 -2.72891e-06 0.335852
0.410156 0.0078125 -0.00136441 5.02802e-06 -2.74877e-06 0.338267
0.414063 0.0078125 -0.00137401 4.92521e-06 -2.76823e-06 0.340632
0.417969 0.0078125 -0.00138341 4.82045e-06 -2.78729e-06 0.342947
0.421875 0.0078125 -0.00139261 4.71373e-06 -2.80593e-06 0.345212
0.425781 0.0078125 -0.0014016 4.60505e-06 -2.82415e-06 0.347425
0.429688 0.0078125 -0.00141037 4.49439e-06 -2.84195e-06 0.349586
0.433594 0.0078125 -0.00141893 4.38175e-06 -2.85931e-06 0.351693
0.4375 0.0078125 -0.00142727 4.26712e-06 -2.87623e-06 0.353745
0.441406 0.0078125 -0.00143539 4.1505e-06 -2.89269e-06 0.355743
0.445313 0.0078125 -0.00144328 4.03188e-06 -2.90869e-06 0.357684
0.449219 0.0078125 -0.00145094 3.91126e-06 -2.92423e-06 0.359568
0.453125 0.0078125 -0.00145836 3.78865e-06 -2.9393e-06 0.361393
0.457031 0.0078125 -0.00146555 3.66404e-06 -2.95388e-06 0.36316
0.460938 0.0078125 -0.00147249 3.53743e-06 -2.96797e-06 0.364867
0.464844 0.0078125 -0.00147918 3.40882e-06 -2.98156e-06 0.366513
0.46875 0.0078125 -0.00148563 3.27823e-06 -2.99464e-06 0.368097
0.472656 0.0078125 -0.00149182 3.14566e-06 -3.00721e-06 0.369619
0.476563 0.0078125 -0.00149775 3.01112e-06 -3.01926e-06 0.371076
0.480469 0.0078125 -0.00150342 2.87462e-06 -3.03078e-06 0.37247
0.484375 0.0078125 -0.00150883 2.73616e-06 -3.04176e-06 0.373798
0.488281 0.0078125 -0.00151397 2.59577e-06 -3.0522e-06 0.375059
0.492188 0.0078125 -0.00151883 2.45345e-06 -3.06209e-06 0.376253
0.496094 0.0078125 -0.00152342 2.30924e-06 -3.07142e-06 0.377379
0.5 0.0078125 -0.00152773 2.16313e-06 -3.08017e-06 0.378437
0.503906 0.0078125 -0.00153175 2.01517e-06 -3.08836e-06 0.379424
0.507813 0.0078125 -0.00153549 1.86536e-06 -3.09596e-06 0.38034
0.511719 0.0078125 -0.00153893 1.71373e-06 -3.10298e-06 0.381185
0.515625 0.0078125 -0.00154209 1.56032e-06 -3.1094e-06 0.381958
0.519531 0.0078125 -0.00154494 1.40515e-06 -3.11521e-06 0.382657
0.523438 0.0078125 -0.0015475 1.24824e-06 -3.12042e-06 0.383282
0.527344 0.0078125 -0.00154975 1.08964e-06 -3.12501e-06 0.383833
0.53125 0.0078125 -0.00155169 9.29383e-07 -3.12898e-06 0.384307
0.535156 0.0078125 -0.00155333 7.67498e-07 -3.13231e-06 0.384706
0.539063 0.0078125 -0.00155465 6.04028e-07 -3.13502e-06 0.385027
0.542969 0.0078125 -0.00155565 4.39015e-07 -3.13708e-06 0.385271
0.546875 0.0078125 -0.00155633 2.72502e-07 -3.13849e-06 0.385435
0.550781 0.0078125 -0.0015567 1.04534e-07 -3.13925e-06 0.385521
0.554688 0.0078125 -0.00155673 -6.48405e-08 -3.13935e-06 0.385527
0.558594 0.0078125 -0.00155644 -2.35572e-07 -3.13878e-06 0.385452
0.5625 0.0078125 -0.00155582 -4.07609e-07 -3.13755e-06 0.385296
0.566406 0.0078125 -0.00155487 -5.80897e-07 -3.13564e-06 0.385059
0.570313 0.0078125 -0.00155359 -7.5538e-07 -3.13305e-06 0.384739
0.574219 0.0078125 -0.00155196 -9.31001e-07 -3.12978e-06 0.384336
0.578125 0.0078125 -0.00155 -1.1077e-06 -3.12582e-06 0.383849
0.582031 0.0078125 -0.00154769 -1.28541e-06 -3.12117e-06 0.383279
0.585938 0.0078125 -0.00154505 -1.46408e-06 -3.11582e-06 0.382625
0.589844 0.0078125 -0.00154205 -1.64363e-06 -3.10977e-06 0.381886
0.59375 0.0078125 -0.00153872 -1.824e-06 -3.10301e-06 0.381061
0.597656 0.0078125 -0.00153503 -2.00512e-06 -3.09555e-06 0.380151
0.601563 0.0078125 -0.00153099 -2.18691e-06 -3.08739e-06 0.379155
0.605469 0.0078125 -0.00152661 -2.36931e-06 -3.07851e-06 0.378073
0.609375 0.0078125 -0.00152187 -2.55225e-06 -3.06891e-06 0.376905
0.613281 0.0078125 -0.00151678 -2.73563e-06 -3.0586e-06 0.37565
0.617188 0.0078125 -0.00151134 -2.9194e-06 -3.04757e-06 0.374308
0.621094 0.0078125 -0.00150554 -3.10346e-06 -3.03583e-06 0.372879
0.625 0.0078125 -0.00149939 -3.28774e-06 -3.02336e-06 0.371363
0.628906 0.0078125 -0.00149288 -3.47216e-06 -3.01018e-06 0.369759
0.632813 0.0078125 -0.00148602 -3.65663e-06 -2.99627e-06 0.368069
0.636719 0.0078125 -0.0014788 -3.84107e-06 -2.98164e-06 0.36629
0.640625 0.0078125 -0.00147123 -4.0254e-06 -2.96629e-06 0.364425
0.644531 0.0078125 -0.0014633 -4.20953e-06 -2.95022e-06 0.362472
0.648438 0.0078125 -0.00145502 -4.39337e-06 -2.93343e-06 0.360432
0.652344 0.0078125 -0.00144638 -4.57685e-06 -2.91593e-06 0.358306
0.65625 0.0078125 -0.00143739 -4.75986e-06 -2.8977e-06 0.356092
0.660156 0.0078125 -0.00142805 -4.94232e-06 -2.87877e-06 0.353792
0.664063 0.0078125 -0.00141836 -5.12415e-06 -2.85912e-06 0.351405
0.667969 0.0078125 -0.00140832 -5.30526e-06 -2.83876e-06 0.348932
0.671875 0.0078125 -0.00139793 -5.48555e-06 -2.8177e-06 0.346374
0.675781 0.0078125 -0.00138719 -5.66495e-06 -2.79593e-06 0.34373
0.679688 0.0078125 -0.00137611 -5.84336e-06 -2.77346e-06 0.341002
0.683594 0.0078125 -0.00136469 -6.02069e-06 -2.7503e-06 0.338189
0.6875 0.0078125 -0.00135292 -6.19686e-06 -2.72645e-06 0.335292
0.691406 0.0078125 -0.00134082 -6.37177e-06 -2.70191e-06 0.332311
0.695313 0.0078125 -0.00132838 -6.54536e-06 -2.67668e-06 0.329248
0.699219 0.0078125 -0.0013156 -6.71752e-06 -2.65079e-06 0.326103
0.703125 0.0078125 -0.0013025 -6.88818e-06 -2.62422e-06 0.322876
0.707031 0.0078125 -0.00128907 -7.05725e-06 -2.59699e-06 0.319568
0.710938 0.0078125 -0.00127531 -7.22465e-06 -2.5691e-06 0.31618
0.714844 0.0078125 -0.00126123 -7.3903e-06 -2.54056e-06 0.312713
0.71875 0.0078125 -0.00124683 -7.55412e-06 -2.51138e-06 0.309167
0.722656 0.0078125 -0.00123212 -7.71603e-06 -2.48156e-06 0.305544
0.726563 0.0078125 -0.0012171 -7.87597e-06 -2.45111e-06 0.301844
0.730469 0.0078125 -0.00120177 -8.03384e-06 -2.42004e-06 0.298068
0.734375 0.0078125 -0.00118614 -8.18959e-06 -2.38835e-06 0.294217
0.738281 0.0078125 -0.0011702 -8.34313e-06 -2.35607e-06 0.290293
0.742188 0.0078125 -0.00115398 -8.49441e-06 -2.32318e-06 0.286295
0.746094 0.0078125 -0.00113746 -8.64335e-06 -2.28971e-06 0.282226
0.75 0.0078125 -0.00112066 -8.78988e-06 -2.25566e-06 0.278086
0.753906 0.0078125 -0.00110357 -8.93396e-06 -2.22105e-06 0.273876
0.757813 0.0078125 -0.00108621 -9.0755e-06 -2.18587e-06 0.269598
0.761719 0.0078125 -0.00106858 -9.21445e-06 -2.15015e-06 0.265253
0.765625 0.0078125 -0.00105068 -9.35075e-06 -2.11388e-06 0.260841
0.769531 0.0078125 -0.00103251 -9.48435e-06 -2.07709e-06 0.256365
0.773438 0.0078125 -0.0010141 -9.61517e-06 -2.03979e-06 0.251826
0.777344 0.0078125 -0.000995427 -9.74316e-06 -2.00198e-06 0.247224
0.78125 0.0078125 -0.000976512 -9.86827e-06 -1.96367e-06 0.242561
0.785156 0.0078125 -0.000957357 -9.99042e-06 -1.92488e-06 0.237839
0.789063 0.0078125 -0.000937967 -1.01096e-05 -1.88562e-06 0.233058
0.792969 0.0078125 -0.00091835 -1.02256e-05 -1.84589e-06 0.228221
0.796875 0.0078125 -0.000898509 -1.03385e-05 -1.80572e-06 0.223329
0.800781 0.0078125 -0.000878453 -1.04482e-05 -1.76512e-06 0.218383
0.804688 0.0078125 -0.000858187 -1.05545e-05 -1.72409e-06 0.213385
0.808594 0.0078125 -0.000837717 -1.06574e-05 -1.68266e-06 0.208336
0.8125 0.0078125 -0.000817051 -1.07568e-05 -1.64082e-06 0.203239
0.816406 0.0078125 -0.000796195 -1.08525e-05 -1.59861e-06 0.198095
0.820313 0.0078125 -0.000775156 -1.09444e-05 -1.55603e-06 0.192905
0.824219 0.0078125 -0.000753943 -1.10323e-05 -1.5131e-06 0.187672
0.828125 0.0078125 -0.000732563 -1.11162e-05 -1.46983e-06 0.182398
0.832031 0.0078125 -0.000711024 -1.11956e-05 -1.42624e-06 0.177084
0.835938 0.0078125 -0.000689335 -1.12705e-05 -1.38235e-06 0.171733
0.839844 0.0078125 -0.000667505 -1.13405e-05 -1.33818e-06 0.166348
0.84375 0.0078125 -0.000645545 -1.14053e-05 -1.29374e-06 0.16093
0.847656 0.0078125 -0.000623464 -1.14645e-05 -1.24906e-06 0.155482
0.851563 0.0078125 -0.000601274 -1.15178e-05 -1.20416e-06 0.150008