Title=" Lid Driven Flow"
VARIABLES="X","Y","U","V","psi","xi"
ZONE T= "BOX", I= 201, J=201, F=POINT
0 0 0 0 0.00330377 0
0.005 0 0 0 0 0
0.01 0 0 0 0 0
0.015 0 0 0 0 161.891
0.02 0 0 0 0 176.122
0.025 0 0 0 0 155.6
0.03 0 0 0 0 133.206
0.035 0 0 0 0 115.684
0.04 0 0 0 0 102.827
0.045 0 0 0 0 93.2929
0.05 0 0 0 0 85.9702
0.055 0 0 0 0 80.1263
0.06 0 0 0 0 75.3027
0.065 0 0 0 0 71.2106
0.07 0 0 0 0 67.6622
0.075 0 0 0 0 64.5308
0.08 0 0 0 0 61.7283
0.085 0 0 0 0 59.191
0.09 0 0 0 0 56.8721
0.095 0 0 0 0 54.7364
0.1 0 0 0 0 52.757
0.105 0 0 0 0 50.9128
0.11 0 0 0 0 49.1871
0.115 0 0 0 0 47.5666
0.12 0 0 0 0 46.0403
0.125 0 0 0 0 44.5992
0.13 0 0 0 0 43.2356
0.135 0 0 0 0 41.9431
0.14 0 0 0 0 40.7161
0.145 0 0 0 0 39.5495
0.15 0 0 0 0 38.4392
0.155 0 0 0 0 37.3812
0.16 0 0 0 0 36.3719
0.165 0 0 0 0 35.4081
0.17 0 0 0 0 34.487
0.175 0 0 0 0 33.6057
0.18 0 0 0 0 32.7618
0.185 0 0 0 0 31.9529
0.19 0 0 0 0 31.1767
0.195 0 0 0 0 30.4312
0.2 0 0 0 0 29.7144
0.205 0 0 0 0 29.0245
0.21 0 0 0 0 28.3598
0.215 0 0 0 0 27.7185
0.22 0 0 0 0 27.0992
0.225 0 0 0 0 26.5003
0.23 0 0 0 0 25.9206
0.235 0 0 0 0 25.3586
0.24 0 0 0 0 24.8131
0.245 0 0 0 0 24.283
0.25 0 0 0 0 23.7672
0.255 0 0 0 0 23.2646
0.26 0 0 0 0 22.7743
0.265 0 0 0 0 22.2953
0.27 0 0 0 0 21.8267
0.275 0 0 0 0 21.3679
0.28 0 0 0 0 20.9179
0.285 0 0 0 0 20.4761
0.29 0 0 0 0 20.0419
0.295 0 0 0 0 19.6146
0.3 0 0 0 0 19.1937
0.305 0 0 0 0 18.7786
0.31 0 0 0 0 18.3689
0.315 0 0 0 0 17.9641
0.32 0 0 0 0 17.5638
0.325 0 0 0 0 17.1676
0.33 0 0 0 0 16.7753
0.335 0 0 0 0 16.3865
0.34 0 0 0 0 16.0009
0.345 0 0 0 0 15.6183
0.35 0 0 0 0 15.2386
0.355 0 0 0 0 14.8616
0.36 0 0 0 0 14.487
0.365 0 0 0 0 14.1149
0.37 0 0 0 0 13.7451
0.375 0 0 0 0 13.3776
0.38 0 0 0 0 13.0123
0.385 0 0 0 0 12.6493
0.39 0 0 0 0 12.2885
0.395 0 0 0 0 11.93
0.4 0 0 0 0 11.5738
0.405 0 0 0 0 11.22
0.41 0 0 0 0 10.8687
0.415 0 0 0 0 10.5201
0.42 0 0 0 0 10.1742
0.425 0 0 0 0 9.83121
0.43 0 0 0 0 9.49127
0.435 0 0 0 0 9.15453
0.44 0 0 0 0 8.8212
0.445 0 0 0 0 8.49144
0.45 0 0 0 0 8.16547
0.455 0 0 0 0 7.84348
0.46 0 0 0 0 7.52567
0.465 0 0 0 0 7.21227
0.47 0 0 0 0 6.90347
0.475 0 0 0 0 6.5995
0.48 0 0 0 0 6.30056
0.485 0 0 0 0 6.00686
0.49 0 0 0 0 5.71861
0.495 0 0 0 0 5.43601
0.5 0 0 0 0 5.15924
0.505 0 0 0 0 4.8885
0.51 0 0 0 0 4.62395
0.515 0 0 0 0 4.36576
0.52 0 0 0 0 4.11408
0.525 0 0 0 0 3.86905
0.53 0 0 0 0 3.63079
0.535 0 0 0 0 3.39942
0.54 0 0 0 0 3.17504
0.545 0 0 0 0 2.95771
0.55 0 0 0 0 2.74751
0.555 0 0 0 0 2.54447
0.56 0 0 0 0 2.34865
0.565 0 0 0 0 2.16003
0.57 0 0 0 0 1.97863
0.575 0 0 0 0 1.80443
0.58 0 0 0 0 1.63738
0.585 0 0 0 0 1.47744
0.59 0 0 0 0 1.32455
0.595 0 0 0 0 1.17861
0.6 0 0 0 0 1.03954
0.605 0 0 0 0 0.907234
0.61 0 0 0 0 0.781563
0.615 0 0 0 0 0.662401
0.62 0 0 0 0 0.549605
0.625 0 0 0 0 0.443024
0.63 0 0 0 0 0.342498
0.635 0 0 0 0 0.247861
0.64 0 0 0 0 0.158939
0.645 0 0 0 0 0.0755523
0.65 0 0 0 0 -0.00248161
0.655 0 0 0 0 -0.0753503
0.66 0 0 0 0 -0.143244
0.665 0 0 0 0 -0.206355
0.67 0 0 0 0 -0.264876
0.675 0 0 0 0 -0.319003
0.68 0 0 0 0 -0.36893
0.685 0 0 0 0 -0.414852
0.69 0 0 0 0 -0.456964
0.695 0 0 0 0 -0.495458
0.7 0 0 0 0 -0.530528
0.705 0 0 0 0 -0.562365
0.71 0 0 0 0 -0.591158
0.715 0 0 0 0 -0.617094
0.72 0 0 0 0 -0.64036
0.725 0 0 0 0 -0.661137
0.73 0 0 0 0 -0.679606
0.735 0 0 0 0 -0.695939
0.74 0 0 0 0 -0.710307
0.745 0 0 0 0 -0.722874
0.75 0 0 0 0 -0.733796
0.755 0 0 0 0 -0.743221
0.76 0 0 0 0 -0.751287
0.765 0 0 0 0 -0.75812
0.77 0 0 0 0 -0.763836
0.775 0 0 0 0 -0.768536
0.78 0 0 0 0 -0.772305
0.785 0 0 0 0 -0.775213
0.79 0 0 0 0 -0.777315
0.795 0 0 0 0 -0.778646
0.8 0 0 0 0 -0.779225
0.805 0 0 0 0 -0.779053
0.81 0 0 0 0 -0.778114
0.815 0 0 0 0 -0.776376
0.82 0 0 0 0 -0.773791
0.825 0 0 0 0 -0.770296
0.83 0 0 0 0 -0.765817
0.835 0 0 0 0 -0.760268
0.84 0 0 0 0 -0.753556
0.845 0 0 0 0 -0.745582
0.85 0 0 0 0 -0.736244
0.855 0 0 0 0 -0.72544
0.86 0 0 0 0 -0.713071
0.865 0 0 0 0 -0.699046
0.87 0 0 0 0 -0.683281
0.875 0 0 0 0 -0.665706
0.88 0 0 0 0 -0.646269
0.885 0 0 0 0 -0.624934
0.89 0 0 0 0 -0.601691
0.895 0 0 0 0 -0.576554
0.9 0 0 0 0 -0.549563
0.905 0 0 0 0 -0.520792
0.91 0 0 0 0 -0.490345
0.915 0 0 0 0 -0.458361
0.92 0 0 0 0 -0.425017
0.925 0 0 0 0 -0.390524
0.93 0 0 0 0 -0.355133
0.935 0 0 0 0 -0.319133
0.94 0 0 0 0 -0.282853
0.945 0 0 0 0 -0.246659
0.95 0 0 0 0 -0.210958
0.955 0 0 0 0 -0.176195
0.96 0 0 0 0 -0.142854
0.965 0 0 0 0 -0.111455
0.97 0 0 0 0 -0.0825592
0.975 0 0 0 0 -0.0567573
0.98 0 0 0 0 -0.0346674
0.985 0 0 0 0 -0.0169131
0.99 0 0 0 0 -0.0040769
0.995 0 0 0 0 0.00341172
1 0 0 0 0 0.00553813
0 0.005 0 0 0 0
0.005 0.005 0 0 0 0
0.01 0.005 0 0 0 73.7282
0.015 0.005 0 0 0 62.071
0.02 0.005 0 0 0 45.7269
0.025 0.005 0 0 0 33.9626
0.03 0.005 0 0 0 26.0647
0.035 0.005 0 0 0 20.6325
0.04 0.005 0 0 0 16.7249
0.045 0.005 0 0 0 13.7916
0.05 0.005 0 0 0 11.5136
0.055 0.005 0 0 0 9.70023
0.06 0.005 0 0 0 8.23126
0.065 0.005 0 0 0 7.02695
0.07 0.005 0 0 0 6.03156
0.075 0.005 0 0 0 5.2044
0.08 0.005 0 0 0 4.51465
0.085 0.005 0 0 0 3.93828
0.09 0.005 0 0 0 3.45619
0.095 0.005 0 0 0 3.05289
0.1 0.005 0 0 0 2.71576
0.105 0.005 0 0 0 2.43434
0.11 0.005 0 0 0 2.19999
0.115 0.005 0 0 0 2.00552
0.12 0.005 0 0 0 1.84489
0.125 0.005 0 0 0 1.7131
0.13 0.005 0 0 0 1.60593
0.135 0.005 0 0 0 1.51985
0.14 0.005 0 0 0 1.45193
0.145 0.005 0 0 0 1.39966
0.15 0.005 0 0 0 1.361
0.155 0.005 0 0 0 1.33419
0.16 0.005 0 0 0 1.31779
0.165 0.005 0 0 0 1.31057
0.17 0.005 0 0 0 1.31151
0.175 0.005 0 0 0 1.31976
0.18 0.005 0 0 0 1.3346
0.185 0.005 0 0 0 1.35543
0.19 0.005 0 0 0 1.38174
0.195 0.005 0 0 0 1.41311
0.2 0.005 0 0 0 1.44918
0.205 0.005 0 0 0 1.48964
0.21 0.005 0 0 0 1.53424
0.215 0.005 0 0 0 1.58275
0.22 0.005 0 0 0 1.63499
0.225 0.005 0 0 0 1.69077
0.23 0.005 0 0 0 1.74995
0.235 0.005 0 0 0 1.81239
0.24 0.005 0 0 0 1.87797
0.245 0.005 0 0 0 1.94658
0.25 0.005 0 0 0 2.0181
0.255 0.005 0 0 0 2.09242
0.26 0.005 0 0 0 2.16945
0.265 0.005 0 0 0 2.24907
0.27 0.005 0 0 0 2.3312
0.275 0.005 0 0 0 2.41571
0.28 0.005 0 0 0 2.50251
0.285 0.005 0 0 0 2.59149
0.29 0.005 0 0 0 2.68252
0.295 0.005 0 0 0 2.77551
0.3 0.005 0 0 0 2.87031
0.305 0.005 0 0 0 2.96681
0.31 0.005 0 0 0 3.06487
0.315 0.005 0 0 0 3.16435
0.32 0.005 0 0 0 3.26512
0.325 0.005 0 0 0 3.36703
0.33 0.005 0 0 0 3.46993
0.335 0.005 0 0 0 3.57364
0.34 0.005 0 0 0 3.67802
0.345 0.005 0 0 0 3.7829
0.35 0.005 0 0 0 3.88809
0.355 0.005 0 0 0 3.99343
0.36 0.005 0 0 0 4.09873
0.365 0.005 0 0 0 4.2038
0.37 0.005 0 0 0 4.30845
0.375 0.005 0 0 0 4.41249
0.38 0.005 0 0 0 4.51572
0.385 0.005 0 0 0 4.61794
0.39 0.005 0 0 0 4.71894
0.395 0.005 0 0 0 4.81853
0.4 0.005 0 0 0 4.91649
0.405 0.005 0 0 0 5.01262
0.41 0.005 0 0 0 5.10671
0.415 0.005 0 0 0 5.19854
0.42 0.005 0 0 0 5.28792
0.425 0.005 0 0 0 5.37463
0.43 0.005 0 0 0 5.45847
0.435 0.005 0 0 0 5.53924
0.44 0.005 0 0 0 5.61672
0.445 0.005 0 0 0 5.69074
0.45 0.005 0 0 0 5.76107
0.455 0.005 0 0 0 5.82755
0.46 0.005 0 0 0 5.88998
0.465 0.005 0 0 0 5.94819
0.47 0.005 0 0 0 6.00199
0.475 0.005 0 0 0 6.05122
0.48 0.005 0 0 0 6.09572
0.485 0.005 0 0 0 6.13533
0.49 0.005 0 0 0 6.16992
0.495 0.005 0 0 0 6.19935
0.5 0.005 0 0 0 6.22348
0.505 0.005 0 0 0 6.24221
0.51 0.005 0 0 0 6.25543
0.515 0.005 0 0 0 6.26305
0.52 0.005 0 0 0 6.26498
0.525 0.005 0 0 0 6.26115
0.53 0.005 0 0 0 6.25151
0.535 0.005 0 0 0 6.23601
0.54 0.005 0 0 0 6.21463
0.545 0.005 0 0 0 6.18733
0.55 0.005 0 0 0 6.15413
0.555 0.005 0 0 0 6.11503
0.56 0.005 0 0 0 6.07007
0.565 0.005 0 0 0 6.01928
0.57 0.005 0 0 0 5.96272
0.575 0.005 0 0 0 5.90046
0.58 0.005 0 0 0 5.8326
0.585 0.005 0 0 0 5.75924
0.59 0.005 0 0 0 5.68049
0.595 0.005 0 0 0 5.5965
0.6 0.005 0 0 0 5.50741
0.605 0.005 0 0 0 5.41339
0.61 0.005 0 0 0 5.31462
0.615 0.005 0 0 0 5.2113
0.62 0.005 0 0 0 5.10363
0.625 0.005 0 0 0 4.99183
0.63 0.005 0 0 0 4.87615
0.635 0.005 0 0 0 4.75681
0.64 0.005 0 0 0 4.6341
0.645 0.005 0 0 0 4.50826
0.65 0.005 0 0 0 4.37959
0.655 0.005 0 0 0 4.24836
0.66 0.005 0 0 0 4.11487
0.665 0.005 0 0 0 3.97942
0.67 0.005 0 0 0 3.84232
0.675 0.005 0 0 0 3.70387
0.68 0.005 0 0 0 3.5644
0.685 0.005 0 0 0 3.42421
0.69 0.005 0 0 0 3.28362
0.695 0.005 0 0 0 3.14294
0.7 0.005 0 0 0 3.00249
0.705 0.005 0 0 0 2.86258
0.71 0.005 0 0 0 2.72351
0.715 0.005 0 0 0 2.58557
0.72 0.005 0 0 0 2.44907
0.725 0.005 0 0 0 2.31428
0.73 0.005 0 0 0 2.18148
0.735 0.005 0 0 0 2.05093
0.74 0.005 0 0 0 1.92288
0.745 0.005 0 0 0 1.79756
0.75 0.005 0 0 0 1.67521
0.755 0.005 0 0 0 1.55604
0.76 0.005 0 0 0 1.44023
0.765 0.005 0 0 0 1.32797
0.77 0.005 0 0 0 1.21942
0.775 0.005 0 0 0 1.11473
0.78 0.005 0 0 0 1.01403
0.785 0.005 0 0 0 0.91742
0.79 0.005 0 0 0 0.825008
0.795 0.005 0 0 0 0.736865
0.8 0.005 0 0 0 0.653053
0.805 0.005 0 0 0 0.573614
0.81 0.005 0 0 0 0.498573
0.815 0.005 0 0 0 0.427941
0.82 0.005 0 0 0 0.361711
0.825 0.005 0 0 0 0.299863
0.83 0.005 0 0 0 0.24236
0.835 0.005 0 0 0 0.189152
0.84 0.005 0 0 0 0.140177
0.845 0.005 0 0 0 0.095361
0.85 0.005 0 0 0 0.0546165
0.855 0.005 0 0 0 0.0178477
0.86 0.005 0 0 0 -0.0150512
0.865 0.005 0 0 0 -0.0441943
0.87 0.005 0 0 0 -0.0697035
0.875 0.005 0 0 0 -0.091707
0.88 0.005 0 0 0 -0.110339
0.885 0.005 0 0 0 -0.125739
0.89 0.005 0 0 0 -0.138049
0.895 0.005 0 0 0 -0.147418
0.9 0.005 0 0 0 -0.153995
0.905 0.005 0 0 0 -0.157934
0.91 0.005 0 0 0 -0.159392
0.915 0.005 0 0 0 -0.158527
0.92 0.005 0 0 0 -0.155503
0.925 0.005 0 0 0 -0.150488
0.93 0.005 0 0 0 -0.143655
0.935 0.005 0 0 0 -0.135184
0.94 0.005 0 0 0 -0.125268
0.945 0.005 0 0 0 -0.114109
0.95 0.005 0 0 0 -0.101929
0.955 0.005 0 0 0 -0.0889718
0.96 0.005 0 0 0 -0.075511
0.965 0.005 0 0 0 -0.061857
0.97 0.005 0 0 0 -0.0483685
0.975 0.005 0 0 0 -0.0354643
0.98 0.005 0 0 0 -0.0236368
0.985 0.005 0 0 0 -0.0134609
0.99 0.005 0 0 0 -0.00558538
0.995 0.005 0 0 0 -0.000659276
1 0.005 0 0 0 0.000944386
0 0.01 0 0 0.000944386 0
0.005 0.01 0 0 0 -326.272
0.01 0.01 -0.180045 0.0775888 -0.000921602 -44.4029
0.015 0.01 -0.184861 -0.0350016 -0.000775888 9.53003
0.02 0.01 -0.156384 -0.0351355 -0.000571586 19.1167
0.025 0.01 -0.127549 -0.0245777 -0.000424533 18.9902
0.03 0.01 -0.104139 -0.0166627 -0.000325809 16.8238
0.035 0.01 -0.0859047 -0.0116748 -0.000257906 14.4918
0.04 0.01 -0.0716512 -0.00855113 -0.000209061 12.4227
0.045 0.01 -0.0603359 -0.00651409 -0.000172395 10.6705
0.05 0.01 -0.0512048 -0.00511416 -0.00014392 9.20054
0.055 0.01 -0.0437335 -0.00410296 -0.000121253 7.96537
0.06 0.01 -0.0375555 -0.00334161 -0.000102891 6.92327
0.065 0.01 -0.032408 -0.00274962 -8.78368e-05 6.04071
0.07 0.01 -0.0280965 -0.00227818 -7.53945e-05 5.29116
0.075 0.01 -0.0244729 -0.00189614 -6.5055e-05 4.65348
0.08 0.01 -0.0214213 -0.00158265 -5.64331e-05 4.11056
0.085 0.01 -0.0188487 -0.00132307 -4.92285e-05 3.64835
0.09 0.01 -0.0166798 -0.00110673 -4.32023e-05 3.25516
0.095 0.01 -0.0148524 -0.000925534 -3.81611e-05 2.92116
0.1 0.01 -0.0133148 -0.000773189 -3.39469e-05 2.63804
0.105 0.01 -0.0120238 -0.000644699 -3.04292e-05 2.39873
0.11 0.01 -0.0109431 -0.000536027 -2.74999e-05 2.19718
0.115 0.01 -0.0100421 -0.000443872 -2.50689e-05 2.02825
0.12 0.01 -0.00929501 -0.000365516 -2.30611e-05 1.88753
0.125 0.01 -0.00868005 -0.000298702 -2.14137e-05 1.77123
0.13 0.01 -0.0081788 -0.000241554 -2.00741e-05 1.67614
0.135 0.01 -0.0077757 -0.000192502 -1.89982e-05 1.5995
0.14 0.01 -0.00745761 -0.000150234 -1.8149e-05 1.53896
0.145 0.01 -0.0072134 -0.000113653 -1.74958e-05 1.4925
0.15 0.01 -0.00703369 -8.18351e-05 -1.70125e-05 1.45841
0.155 0.01 -0.00691056 -5.4009e-05 -1.66774e-05 1.43523
0.16 0.01 -0.0068373 -2.95265e-05 -1.64724e-05 1.42172
0.165 0.01 -0.00680828 -7.84461e-06 -1.63821e-05 1.41682
0.17 0.01 -0.00681872 1.14914e-05 -1.63939e-05 1.41963
0.175 0.01 -0.0068646 2.8862e-05 -1.6497e-05 1.42937
0.18 0.01 -0.00694252 4.45848e-05 -1.66825e-05 1.4454
0.185 0.01 -0.00704961 5.89248e-05 -1.69428e-05 1.46716
0.19 0.01 -0.00718343 7.21021e-05 -1.72717e-05 1.49416
0.195 0.01 -0.00734192 8.42995e-05 -1.76638e-05 1.52601
0.2 0.01 -0.00752331 9.56679e-05 -1.81147e-05 1.56235
0.205 0.01 -0.00772611 0.000106331 -1.86205e-05 1.60287
0.21 0.01 -0.007949 0.000116392 -1.9178e-05 1.64732
0.215 0.01 -0.00819088 0.000125932 -1.97844e-05 1.69546
0.22 0.01 -0.00845075 0.000135018 -2.04373e-05 1.74709
0.225 0.01 -0.00872773 0.000143704 -2.11346e-05 1.80203
0.23 0.01 -0.00902105 0.000152031 -2.18743e-05 1.86011
0.235 0.01 -0.00933 0.000160034 -2.26549e-05 1.92118
0.24 0.01 -0.00965391 0.000167735 -2.34746e-05 1.9851
0.245 0.01 -0.00999218 0.000175154 -2.43322e-05 2.05175
0.25 0.01 -0.0103442 0.000182303 -2.52262e-05 2.12099
0.255 0.01 -0.0107094 0.00018919 -2.61552e-05 2.19271
0.26 0.01 -0.0110873 0.000195818 -2.71181e-05 2.26679
0.265 0.01 -0.0114773 0.000202189 -2.81134e-05 2.3431
0.27 0.01 -0.0118789 0.000208299 -2.914e-05 2.42154
0.275 0.01 -0.0122914 0.000214145 -3.01964e-05 2.50199
0.28 0.01 -0.0127144 0.00021972 -3.12814e-05 2.58432
0.285 0.01 -0.0131472 0.000225015 -3.23936e-05 2.66842
0.29 0.01 -0.0135893 0.000230021 -3.35316e-05 2.75416
0.295 0.01 -0.01404 0.000234728 -3.46938e-05 2.84142
0.3 0.01 -0.0144988 0.000239125 -3.58788e-05 2.93006
0.305 0.01 -0.014965 0.000243197 -3.70851e-05 3.01996
0.31 0.01 -0.0154378 0.000246935 -3.83108e-05 3.11097
0.315 0.01 -0.0159167 0.000250323 -3.95544e-05 3.20296
0.32 0.01 -0.0164008 0.000253349 -4.08141e-05 3.29578
0.325 0.01 -0.0168896 0.000256 -4.20879e-05 3.38929
0.33 0.01 -0.0173821 0.000258262 -4.33741e-05 3.48332
0.335 0.01 -0.0178776 0.000260121 -4.46706e-05 3.57774
0.34 0.01 -0.0183754 0.000261567 -4.59753e-05 3.67236
0.345 0.01 -0.0188745 0.000262584 -4.72863e-05 3.76705
0.35 0.01 -0.0193741 0.000263163 -4.86012e-05 3.86162
0.355 0.01 -0.0198734 0.00026329 -4.99179e-05 3.95591
0.36 0.01 -0.0203715 0.000262955 -5.12341e-05 4.04975
0.365 0.01 -0.0208674 0.000262149 -5.25475e-05 4.14296
0.37 0.01 -0.0213603 0.000260861 -5.38556e-05 4.23538
0.375 0.01 -0.0218493 0.000259083 -5.51561e-05 4.32682
0.38 0.01 -0.0223333 0.000256807 -5.64465e-05 4.4171
0.385 0.01 -0.0228115 0.000254027 -5.77242e-05 4.50605
0.39 0.01 -0.0232828 0.000250736 -5.89868e-05 4.59349
0.395 0.01 -0.0237464 0.000246931 -6.02317e-05 4.67923
0.4 0.01 -0.0242013 0.000242608 -6.14562e-05 4.76309
0.405 0.01 -0.0246464 0.000237765 -6.26578e-05 4.84491
0.41 0.01 -0.0250808 0.0002324 -6.38339e-05 4.92449
0.415 0.01 -0.0255036 0.000226514 -6.49818e-05 5.00167
0.42 0.01 -0.0259138 0.000220108 -6.60991e-05 5.07626
0.425 0.01 -0.0263104 0.000213185 -6.7183e-05 5.1481
0.43 0.01 -0.0266926 0.00020575 -6.8231e-05 5.21701
0.435 0.01 -0.0270593 0.000197807 -6.92405e-05 5.28283
0.44 0.01 -0.0274097 0.000189365 -7.02091e-05 5.34541
0.445 0.01 -0.0277428 0.00018043 -7.11343e-05 5.40457
0.45 0.01 -0.0280579 0.000171014 -7.20135e-05 5.46016
0.455 0.01 -0.0283541 0.000161128 -7.28445e-05 5.51204
0.46 0.01 -0.0286304 0.000150783 -7.36249e-05 5.56007
0.465 0.01 -0.0288862 0.000139996 -7.43524e-05 5.6041
0.47 0.01 -0.0291207 0.00012878 -7.50249e-05 5.644
0.475 0.01 -0.0293331 0.000117154 -7.56403e-05 5.67966
0.48 0.01 -0.0295228 0.000105136 -7.61965e-05 5.71095
0.485 0.01 -0.0296891 9.2747e-05 -7.66918e-05 5.73777
0.49 0.01 -0.0298313 8.00078e-05 -7.71241e-05 5.76001
0.495 0.01 -0.0299489 6.69419e-05 -7.74919e-05 5.77758
0.5 0.01 -0.0300415 5.35737e-05 -7.77936e-05 5.7904
0.505 0.01 -0.0301084 3.99293e-05 -7.80278e-05 5.79839
0.51 0.01 -0.0301493 2.60358e-05 -7.8193e-05 5.80149
0.515 0.01 -0.0301638 1.1922e-05 -7.82882e-05 5.79963
0.52 0.01 -0.0301516 -2.38224e-06 -7.83124e-05 5.79278
0.525 0.01 -0.0301124 -1.68458e-05 -7.82645e-05 5.7809
0.53 0.01 -0.030046 -3.14364e-05 -7.8144e-05 5.76397
0.535 0.01 -0.0299523 -4.61206e-05 -7.79503e-05 5.74197
0.54 0.01 -0.0298312 -6.0864e-05 -7.76829e-05 5.7149
0.545 0.01 -0.0296826 -7.56311e-05 -7.73418e-05 5.68277
0.55 0.01 -0.0295067 -9.03858e-05 -7.69268e-05 5.64559
0.555 0.01 -0.0293035 -0.000105091 -7.6438e-05 5.60341
0.56 0.01 -0.0290731 -0.000119709 -7.5876e-05 5.55627
0.565 0.01 -0.028816 -0.000134202 -7.52411e-05 5.50422
0.57 0.01 -0.0285323 -0.000148532 -7.45341e-05 5.44734
0.575 0.01 -0.0282224 -0.000162658 -7.37559e-05 5.38569
0.58 0.01 -0.0278869 -0.000176543 -7.29076e-05 5.31938
0.585 0.01 -0.0275261 -0.000190148 -7.19906e-05 5.24851
0.59 0.01 -0.0271408 -0.000203434 -7.10062e-05 5.1732
0.595 0.01 -0.0267315 -0.000216362 -6.99563e-05 5.09357
0.6 0.01 -0.0262991 -0.000228895 -6.88427e-05 5.00976
0.605 0.01 -0.0258442 -0.000240996 -6.76675e-05 4.92192
0.61 0.01 -0.0253678 -0.000252628 -6.64329e-05 4.83021
0.615 0.01 -0.0248707 -0.000263756 -6.51414e-05 4.73481
0.62 0.01 -0.024354 -0.000274346 -6.37955e-05 4.63589
0.625 0.01 -0.0238186 -0.000284365 -6.2398e-05 4.53365
0.63 0.01 -0.0232657 -0.000293784 -6.09519e-05 4.42829
0.635 0.01 -0.0226963 -0.000302572 -5.94603e-05 4.32002
0.64 0.01 -0.0221118 -0.000310702 -5.79263e-05 4.20905
0.645 0.01 -0.0215132 -0.00031815 -5.63534e-05 4.0956
0.65 0.01 -0.020902 -0.000324892 -5.47449e-05 3.97992
0.655 0.01 -0.0202793 -0.000330909 -5.31046e-05 3.86224
0.66 0.01 -0.0196466 -0.000336183 -5.1436e-05 3.74279
0.665 0.01 -0.0190052 -0.000340698 -4.97428e-05 3.62184
0.67 0.01 -0.0183565 -0.000344444 -4.80291e-05 3.49962
0.675 0.01 -0.017702 -0.00034741 -4.62985e-05 3.37639
0.68 0.01 -0.0170429 -0.000349592 -4.45551e-05 3.25241
0.685 0.01 -0.0163808 -0.000350986 -4.28027e-05 3.12793
0.69 0.01 -0.0157172 -0.000351592 -4.10453e-05 3.00321
0.695 0.01 -0.0150533 -0.000351414 -3.92868e-05 2.8785
0.7 0.01 -0.0143907 -0.00035046 -3.75312e-05 2.75407
0.705 0.01 -0.0137308 -0.000348738 -3.57823e-05 2.63016
0.71 0.01 -0.0130749 -0.000346263 -3.40439e-05 2.50701
0.715 0.01 -0.0124243 -0.000343051 -3.23197e-05 2.38487
0.72 0.01 -0.0117805 -0.00033912 -3.06134e-05 2.26398
0.725 0.01 -0.0111447 -0.000334495 -2.89286e-05 2.14457
0.73 0.01 -0.010518 -0.000329199 -2.72686e-05 2.02686
0.735 0.01 -0.00990188 -0.000323261 -2.56366e-05 1.91107
0.74 0.01 -0.00929728 -0.000316712 -2.4036e-05 1.7974
0.745 0.01 -0.00870535 -0.000309584 -2.24696e-05 1.68606
0.75 0.01 -0.00812711 -0.000301912 -2.09402e-05 1.57722
0.755 0.01 -0.00756354 -0.000293733 -1.94505e-05 1.47106
0.76 0.01 -0.00701552 -0.000285087 -1.80029e-05 1.36776
0.765 0.01 -0.0064839 -0.000276012 -1.65996e-05 1.26745
0.77 0.01 -0.00596942 -0.000266551 -1.52428e-05 1.17027
0.775 0.01 -0.00547276 -0.000256745 -1.39341e-05 1.07637
0.78 0.01 -0.00499454 -0.000246639 -1.26753e-05 0.985839
0.785 0.01 -0.00453528 -0.000236274 -1.14678e-05 0.898787
0.79 0.01 -0.00409543 -0.000225695 -1.03126e-05 0.815299
0.795 0.01 -0.00367537 -0.000214944 -9.21082e-06 0.735446
0.8 0.01 -0.00327538 -0.000204065 -8.16317e-06 0.659287
0.805 0.01 -0.0028957 -0.0001931 -7.17017e-06 0.586867
0.81 0.01 -0.00253647 -0.000182091 -6.23216e-06 0.518218
0.815 0.01 -0.00219774 -0.000171077 -5.34926e-06 0.453357
0.82 0.01 -0.00187952 -0.000160097 -4.52139e-06 0.392289
0.825 0.01 -0.00158174 -0.000149189 -3.74828e-06 0.335008
0.83 0.01 -0.00130426 -0.000138388 -3.02949e-06 0.281493
0.835 0.01 -0.00104687 -0.000127727 -2.36439e-06 0.231713
0.84 0.01 -0.000809308 -0.000117238 -1.75221e-06 0.185626
0.845 0.01 -0.000591255 -0.00010695 -1.192e-06 0.143178
0.85 0.01 -0.000392337 -9.68903e-05 -6.82692e-07 0.104307
0.855 0.01 -0.000212131 -8.70832e-05 -2.23082e-07 0.0689404
0.86 0.01 -5.01676e-05 -7.75511e-05 1.88155e-07 0.0369969
0.865 0.01 9.40611e-05 -6.83139e-05 5.52444e-07 0.00838779
0.87 0.01 0.000221102 -5.93893e-05 8.71309e-07 -0.0169834
0.875 0.01 0.000331534 -5.07928e-05 1.14635e-06 -0.0392198
0.88 0.01 0.000425966 -4.25379e-05 1.37925e-06 -0.0584305
0.885 0.01 0.000505035 -3.46361e-05 1.57175e-06 -0.0747303
0.89 0.01 0.0005694 -2.70975e-05 1.72563e-06 -0.088239
0.895 0.01 0.000619739 -1.99308e-05 1.84274e-06 -0.0990813
0.9 0.01 0.000656752 -1.31439e-05 1.92495e-06 -0.107386
0.905 0.01 0.000681157 -6.74432e-06 1.97419e-06 -0.113287
0.91 0.01 0.000693687 -7.3956e-07 1.99241e-06 -0.116921
0.915 0.01 0.000695097 4.86188e-06 1.9816e-06 -0.118432
0.92 0.01 0.000686161 1.00499e-05 1.9438e-06 -0.117965
0.925 0.01 0.000667681 1.48117e-05 1.88111e-06 -0.115675
0.93 0.01 0.000640486 1.91306e-05 1.79569e-06 -0.111721
0.935 0.01 0.000605447 2.29848e-05 1.68981e-06 -0.106271
0.94 0.01 0.00056348 2.63454e-05 1.56585e-06 -0.0995031
0.945 0.01 0.000515568 2.91743e-05 1.42636e-06 -0.091608
0.95 0.01 0.00046277 3.14216e-05 1.27411e-06 -0.0827906
0.955 0.01 0.000406246 3.30227e-05 1.11215e-06 -0.0732743
0.96 0.01 0.000347279 3.3894e-05 9.43891e-07 -0.063304
0.965 0.01 0.00028731 3.39286e-05 7.73215e-07 -0.0531496
0.97 0.01 0.000227963 3.29911e-05 6.04608e-07 -0.0431088
0.975 0.01 0.000171083 3.09148e-05 4.43306e-07 -0.0335073
0.98 0.01 0.000118758 2.75045e-05 2.95461e-07 -0.0246921
0.985 0.01 7.33032e-05 2.25643e-05 1.68261e-07 -0.0170107
0.99 0.01 3.71669e-05 1.6002e-05 6.98173e-08 -0.0107561
0.995 0.01 1.26021e-05 8.16221e-06 8.24086e-09 -0.00604282
1 0.01 8.23251e-07 8.24086e-07 -1.18049e-08 -0.00254773
0 0.015 0 0 -0.000658601 0
0.005 0.015 0 0 0 -255.964
0.01 0.015 -0.152856 0.184861 -0.00180045 -79.2565
0.015 0.015 -0.206241 -0.0236607 -0.00184861 -16.6393
0.02 0.015 -0.204588 -0.0573124 -0.00156384 2.31168
0.025 0.015 -0.184572 -0.0522447 -0.00127549 7.92246
0.03 0.015 -0.161057 -0.0416443 -0.00104139 9.246
0.035 0.015 -0.13903 -0.0324882 -0.000859047 9.11324
0.04 0.015 -0.119781 -0.0255688 -0.000716512 8.4918
0.045 0.015 -0.103346 -0.0204464 -0.000603359 7.73493
0.05 0.015 -0.0894054 -0.0166025 -0.000512048 6.97595
0.055 0.015 -0.0775846 -0.0136493 -0.000437335 6.26461
0.06 0.015 -0.0675463 -0.0113255 -0.000375555 5.61755
0.065 0.015 -0.0590074 -0.00945898 -0.00032408 5.03793
0.07 0.015 -0.0517348 -0.00793503 -0.000280965 4.52342
0.075 0.015 -0.0455368 -0.00667524 -0.000244729 4.06955
0.08 0.015 -0.0402546 -0.0056242 -0.000214213 3.67113
0.085 0.015 -0.0357553 -0.00474142 -0.000188487 3.32288
0.09 0.015 -0.0319271 -0.00399629 -0.000166798 3.01976
0.095 0.015 -0.0286754 -0.003365 -0.000148524 2.75702
0.1 0.015 -0.0259194 -0.0028286 -0.000133148 2.53031
0.105 0.015 -0.0235906 -0.00237172 -0.000120238 2.33566
0.11 0.015 -0.0216302 -0.00198172 -0.000109431 2.16949
0.115 0.015 -0.0199879 -0.00164809 -0.000100421 2.02857
0.12 0.015 -0.0186208 -0.00136204 -9.295e-05 1.91005
0.125 0.015 -0.017492 -0.0011162 -8.68003e-05 1.81136
0.13 0.015 -0.0165702 -0.000904331 -8.17879e-05 1.73026
0.135 0.015 -0.0158286 -0.000721178 -7.77569e-05 1.66475
0.14 0.015 -0.0152442 -0.000562291 -7.4576e-05 1.61308
0.145 0.015 -0.0147974 -0.000423904 -7.21339e-05 1.57372
0.15 0.015 -0.0144716 -0.000302833 -7.03369e-05 1.54533
0.155 0.015 -0.0142526 -0.000196382 -6.91055e-05 1.52675
0.16 0.015 -0.0141283 -0.000102271 -6.83729e-05 1.51696
0.165 0.015 -0.0140883 -1.85763e-05 -6.80827e-05 1.51508
0.17 0.015 -0.014124 5.63276e-05 -6.81871e-05 1.52034
0.175 0.015 -0.0142279 0.000123808 -6.86459e-05 1.53207
0.18 0.015 -0.0143936 0.000185016 -6.94251e-05 1.54969
0.185 0.015 -0.0146157 0.000240917 -7.0496e-05 1.57271
0.19 0.015 -0.0148895 0.000292317 -7.18342e-05 1.60068
0.195 0.015 -0.0152112 0.000339891 -7.34191e-05 1.63322
0.2 0.015 -0.0155772 0.000384198 -7.5233e-05 1.66999
0.205 0.015 -0.0159847 0.0004257 -7.7261e-05 1.7107
0.21 0.015 -0.0164311 0.00046478 -7.949e-05 1.75509
0.215 0.015 -0.0169142 0.000501748 -8.19087e-05 1.80292
0.22 0.015 -0.0174319 0.000536857 -8.45074e-05 1.85398
0.225 0.015 -0.0179824 0.000570311 -8.72773e-05 1.90809
0.23 0.015 -0.0185643 0.000602272 -9.02105e-05 1.96506
0.235 0.015 -0.0191759 0.000632864 -9.32999e-05 2.02474
0.24 0.015 -0.0198159 0.000662184 -9.65391e-05 2.08697
0.245 0.015 -0.0204832 0.000690304 -9.99218e-05 2.1516
0.25 0.015 -0.0211763 0.000717273 -0.000103442 2.21851
0.255 0.015 -0.0218941 0.000743124 -0.000107094 2.28756
0.26 0.015 -0.0226355 0.000767873 -0.000110873 2.35861
0.265 0.015 -0.0233992 0.000791524 -0.000114773 2.43153
0.27 0.015 -0.0241842 0.000814073 -0.000118789 2.5062
0.275 0.015 -0.0249893 0.000835503 -0.000122914 2.58249
0.28 0.015 -0.0258132 0.000855794 -0.000127144 2.66026
0.285 0.015 -0.0266549 0.000874917 -0.000131472 2.73939
0.29 0.015 -0.027513 0.000892838 -0.000135893 2.81975
0.295 0.015 -0.0283863 0.00090952 -0.0001404 2.9012
0.3 0.015 -0.0292735 0.000924925 -0.000144988 2.9836
0.305 0.015 -0.0301732 0.000939008 -0.00014965 3.06682
0.31 0.015 -0.0310842 0.000951726 -0.000154378 3.15071
0.315 0.015 -0.032005 0.000963034 -0.000159167 3.23514
0.32 0.015 -0.0329342 0.000972886 -0.000164009 3.31995
0.325 0.015 -0.0338703 0.000981237 -0.000168896 3.405
0.33 0.015 -0.0348117 0.00098804 -0.000173821 3.49014
0.335 0.015 -0.035757 0.000993253 -0.000178776 3.57522
0.34 0.015 -0.0367045 0.000996832 -0.000183754 3.66008
0.345 0.015 -0.0376526 0.000998735 -0.000188745 3.74457
0.35 0.015 -0.0385997 0.000998924 -0.000193741 3.82853
0.355 0.015 -0.039544 0.000997362 -0.000198734 3.91181
0.36 0.015 -0.0404839 0.000994015 -0.000203715 3.99425
0.365 0.015 -0.0414176 0.00098885 -0.000208674 4.07568
0.37 0.015 -0.0423434 0.000981842 -0.000213603 4.15595
0.375 0.015 -0.0432595 0.000972963 -0.000218493 4.23491
0.38 0.015 -0.0441642 0.000962195 -0.000223333 4.31238
0.385 0.015 -0.0450556 0.000949518 -0.000228115 4.38823
0.39 0.015 -0.0459319 0.000934921 -0.000232829 4.46228
0.395 0.015 -0.0467913 0.000918393 -0.000237464 4.53439
0.4 0.015 -0.0476321 0.000899931 -0.000242013 4.60441
0.405 0.015 -0.0484524 0.000879534 -0.000246464 4.67218
0.41 0.015 -0.0492504 0.000857206 -0.000250808 4.73756
0.415 0.015 -0.0500245 0.000832956 -0.000255036 4.8004
0.42 0.015 -0.0507728 0.000806798 -0.000259138 4.86056
0.425 0.015 -0.0514936 0.000778751 -0.000263104 4.91791
0.43 0.015 -0.0521852 0.000748838 -0.000266926 4.97231
0.435 0.015 -0.0528459 0.000717088 -0.000270593 5.02363
0.44 0.015 -0.0534742 0.000683535 -0.000274097 5.07176
0.445 0.015 -0.0540684 0.000648216 -0.000277429 5.11656
0.45 0.015 -0.054627 0.000611177 -0.00028058 5.15794
0.455 0.015 -0.0551485 0.000572465 -0.000283541 5.19577
0.46 0.015 -0.0556314 0.000532136 -0.000286305 5.22996
0.465 0.015 -0.0560744 0.000490248 -0.000288863 5.26042
0.47 0.015 -0.0564762 0.000446865 -0.000291207 5.28705
0.475 0.015 -0.0568354 0.000402057 -0.000293332 5.30977
0.48 0.015 -0.057151 0.000355899 -0.000295228 5.3285
0.485 0.015 -0.0574218 0.00030847 -0.000296891 5.34319
0.49 0.015 -0.0576469 0.000259854 -0.000298313 5.35376
0.495 0.015 -0.0578251 0.000210141 -0.00029949 5.36016
0.5 0.015 -0.0579558 0.000159423 -0.000300415 5.36236
0.505 0.015 -0.0580382 0.000107801 -0.000301085 5.3603
0.51 0.015 -0.0580715 5.53768e-05 -0.000301494 5.35397
0.515 0.015 -0.0580552 2.25746e-06 -0.000301639 5.34335
0.52 0.015 -0.0579889 -5.14455e-05 -0.000301517 5.32841
0.525 0.015 -0.0578721 -0.000105617 -0.000301125 5.30916
0.53 0.015 -0.0577047 -0.000160137 -0.000300461 5.2856
0.535 0.015 -0.0574865 -0.000214885 -0.000299524 5.25774
0.54 0.015 -0.0572174 -0.000269734 -0.000298313 5.22562
0.545 0.015 -0.0568976 -0.000324556 -0.000296827 5.18925
0.55 0.015 -0.0565272 -0.000379221 -0.000295067 5.14869
0.555 0.015 -0.0561065 -0.000433594 -0.000293035 5.10398
0.56 0.015 -0.055636 -0.000487542 -0.000290732 5.05518
0.565 0.015 -0.0551163 -0.000540927 -0.00028816 5.00235
0.57 0.015 -0.0545479 -0.000593614 -0.000285323 4.94558
0.575 0.015 -0.0539318 -0.000645463 -0.000282225 4.88494
0.58 0.015 -0.0532688 -0.000696339 -0.000278869 4.82053
0.585 0.015 -0.05256 -0.000746102 -0.000275262 4.75246
0.59 0.015 -0.0518065 -0.000794618 -0.000271408 4.68083
0.595 0.015 -0.0510095 -0.000841752 -0.000267316 4.60576
0.6 0.015 -0.0501706 -0.000887372 -0.000262991 4.52737
0.605 0.015 -0.0492911 -0.000931348 -0.000258443 4.4458
0.61 0.015 -0.0483728 -0.000973554 -0.000253678 4.3612
0.615 0.015 -0.0474172 -0.00101387 -0.000248708 4.2737
0.62 0.015 -0.0464263 -0.00105217 -0.00024354 4.18347
0.625 0.015 -0.0454019 -0.00108835 -0.000238186 4.09067
0.63 0.015 -0.0443461 -0.00112231 -0.000232657 3.99545
0.635 0.015 -0.0432609 -0.00115393 -0.000226964 3.898
0.64 0.015 -0.0421486 -0.00118314 -0.000221118 3.79849
0.645 0.015 -0.0410114 -0.00120983 -0.000215133 3.69711
0.65 0.015 -0.0398516 -0.00123394 -0.00020902 3.59404
0.655 0.015 -0.0386716 -0.0012554 -0.000202794 3.48948
0.66 0.015 -0.0374738 -0.00127415 -0.000196467 3.38361
0.665 0.015 -0.0362608 -0.00129013 -0.000190053 3.27663
0.67 0.015 -0.0350351 -0.00130331 -0.000183566 3.16875
0.675 0.015 -0.0337992 -0.00131365 -0.00017702 3.06016
0.68 0.015 -0.0325556 -0.00132114 -0.000170429 2.95107
0.685 0.015 -0.031307 -0.00132577 -0.000163809 2.84167
0.69 0.015 -0.030056 -0.00132754 -0.000157172 2.73218
0.695 0.015 -0.0288051 -0.00132647 -0.000150534 2.62278
0.7 0.015 -0.0275569 -0.00132258 -0.000143908 2.51368
0.705 0.015 -0.0263138 -0.0013159 -0.000137308 2.40507
0.71 0.015 -0.0250785 -0.00130649 -0.000130749 2.29716
0.715 0.015 -0.0238534 -0.0012944 -0.000124244 2.19013
0.72 0.015 -0.0226408 -0.0012797 -0.000117805 2.08417
0.725 0.015 -0.0214431 -0.00126247 -0.000111447 1.97946
0.73 0.015 -0.0202624 -0.0012428 -0.000105181 1.87618
0.735 0.015 -0.0191011 -0.00122079 -9.90189e-05 1.77449
0.74 0.015 -0.0179612 -0.00119655 -9.29729e-05 1.67458
0.745 0.015 -0.0168446 -0.00117018 -8.70536e-05 1.57659
0.75 0.015 -0.0157533 -0.00114182 -8.12713e-05 1.48068
0.755 0.015 -0.0146889 -0.0011116 -7.56355e-05 1.38698
0.76 0.015 -0.0136532 -0.00107965 -7.01554e-05 1.29564
0.765 0.015 -0.0126477 -0.00104612 -6.48391e-05 1.20678
0.77 0.015 -0.0116738 -0.00101115 -5.96942e-05 1.12052
0.775 0.015 -0.0107327 -0.000974886 -5.47277e-05 1.03697
0.78 0.015 -0.00982559 -0.000937491 -4.99454e-05 0.956211
0.785 0.015 -0.00895347 -0.000899116 -4.53528e-05 0.878348
0.79 0.015 -0.00811719 -0.000859916 -4.09543e-05 0.803453
0.795 0.015 -0.00731747 -0.000820048 -3.67537e-05 0.731594
0.8 0.015 -0.00655491 -0.000779665 -3.27539e-05 0.662828
0.805 0.015 -0.00582993 -0.00073892 -2.8957e-05 0.597201
0.81 0.015 -0.00514285 -0.000697964 -2.53647e-05 0.534748
0.815 0.015 -0.00449386 -0.000656942 -2.19774e-05 0.475496
0.82 0.015 -0.00388298 -0.000615995 -1.87952e-05 0.41946
0.825 0.015 -0.00331014 -0.000575262 -1.58174e-05 0.366644
0.83 0.015 -0.00277513 -0.000534871 -1.30426e-05 0.317045
0.835 0.015 -0.00227764 -0.000494949 -1.04687e-05 0.270646