Title=" Lid Driven Flow"
VARIABLES="X","Y","U","V","psi","xi"
ZONE T= "BOX", I= 201, J=201, F=POINT
0 0 0 0 0.00328603 0
0.005 0 0 0 0 0
0.01 0 0 0 0 0
0.015 0 0 0 0 161.891
0.02 0 0 0 0 176.122
0.025 0 0 0 0 155.6
0.03 0 0 0 0 133.207
0.035 0 0 0 0 115.684
0.04 0 0 0 0 102.828
0.045 0 0 0 0 93.2938
0.05 0 0 0 0 85.9711
0.055 0 0 0 0 80.1272
0.06 0 0 0 0 75.3035
0.065 0 0 0 0 71.2112
0.07 0 0 0 0 67.6625
0.075 0 0 0 0 64.5308
0.08 0 0 0 0 61.7279
0.085 0 0 0 0 59.1902
0.09 0 0 0 0 56.8708
0.095 0 0 0 0 54.7347
0.1 0 0 0 0 52.7548
0.105 0 0 0 0 50.9101
0.11 0 0 0 0 49.184
0.115 0 0 0 0 47.563
0.12 0 0 0 0 46.0363
0.125 0 0 0 0 44.5947
0.13 0 0 0 0 43.2307
0.135 0 0 0 0 41.9378
0.14 0 0 0 0 40.7103
0.145 0 0 0 0 39.5434
0.15 0 0 0 0 38.4327
0.155 0 0 0 0 37.3743
0.16 0 0 0 0 36.3647
0.165 0 0 0 0 35.4007
0.17 0 0 0 0 34.4793
0.175 0 0 0 0 33.5978
0.18 0 0 0 0 32.7537
0.185 0 0 0 0 31.9445
0.19 0 0 0 0 31.1682
0.195 0 0 0 0 30.4225
0.2 0 0 0 0 29.7055
0.205 0 0 0 0 29.0155
0.21 0 0 0 0 28.3506
0.215 0 0 0 0 27.7092
0.22 0 0 0 0 27.0897
0.225 0 0 0 0 26.4908
0.23 0 0 0 0 25.9109
0.235 0 0 0 0 25.3488
0.24 0 0 0 0 24.8032
0.245 0 0 0 0 24.273
0.25 0 0 0 0 23.7571
0.255 0 0 0 0 23.2545
0.26 0 0 0 0 22.764
0.265 0 0 0 0 22.285
0.27 0 0 0 0 21.8163
0.275 0 0 0 0 21.3574
0.28 0 0 0 0 20.9074
0.285 0 0 0 0 20.4655
0.29 0 0 0 0 20.0312
0.295 0 0 0 0 19.6038
0.3 0 0 0 0 19.1828
0.305 0 0 0 0 18.7677
0.31 0 0 0 0 18.3578
0.315 0 0 0 0 17.9529
0.32 0 0 0 0 17.5525
0.325 0 0 0 0 17.1563
0.33 0 0 0 0 16.7638
0.335 0 0 0 0 16.3749
0.34 0 0 0 0 15.9893
0.345 0 0 0 0 15.6066
0.35 0 0 0 0 15.2268
0.355 0 0 0 0 14.8496
0.36 0 0 0 0 14.475
0.365 0 0 0 0 14.1028
0.37 0 0 0 0 13.7329
0.375 0 0 0 0 13.3653
0.38 0 0 0 0 12.9999
0.385 0 0 0 0 12.6367
0.39 0 0 0 0 12.2758
0.395 0 0 0 0 11.9172
0.4 0 0 0 0 11.561
0.405 0 0 0 0 11.2071
0.41 0 0 0 0 10.8558
0.415 0 0 0 0 10.5071
0.42 0 0 0 0 10.1612
0.425 0 0 0 0 9.81814
0.43 0 0 0 0 9.47816
0.435 0 0 0 0 9.14141
0.44 0 0 0 0 8.80807
0.445 0 0 0 0 8.47832
0.45 0 0 0 0 8.15237
0.455 0 0 0 0 7.83041
0.46 0 0 0 0 7.51265
0.465 0 0 0 0 7.1993
0.47 0 0 0 0 6.89058
0.475 0 0 0 0 6.5867
0.48 0 0 0 0 6.28787
0.485 0 0 0 0 5.99429
0.49 0 0 0 0 5.70618
0.495 0 0 0 0 5.42373
0.5 0 0 0 0 5.14713
0.505 0 0 0 0 4.87657
0.51 0 0 0 0 4.61222
0.515 0 0 0 0 4.35424
0.52 0 0 0 0 4.10279
0.525 0 0 0 0 3.858
0.53 0 0 0 0 3.62
0.535 0 0 0 0 3.3889
0.54 0 0 0 0 3.16478
0.545 0 0 0 0 2.94775
0.55 0 0 0 0 2.73784
0.555 0 0 0 0 2.53512
0.56 0 0 0 0 2.3396
0.565 0 0 0 0 2.15131
0.57 0 0 0 0 1.97024
0.575 0 0 0 0 1.79637
0.58 0 0 0 0 1.62966
0.585 0 0 0 0 1.47007
0.59 0 0 0 0 1.31751
0.595 0 0 0 0 1.17192
0.6 0 0 0 0 1.0332
0.605 0 0 0 0 0.901233
0.61 0 0 0 0 0.775905
0.615 0 0 0 0 0.657081
0.62 0 0 0 0 0.544621
0.625 0 0 0 0 0.438371
0.63 0 0 0 0 0.338171
0.635 0 0 0 0 0.243854
0.64 0 0 0 0 0.155246
0.645 0 0 0 0 0.0721664
0.65 0 0 0 0 -0.00556842
0.655 0 0 0 0 -0.0781461
0.66 0 0 0 0 -0.145757
0.665 0 0 0 0 -0.208595
0.67 0 0 0 0 -0.266852
0.675 0 0 0 0 -0.320724
0.68 0 0 0 0 -0.370407
0.685 0 0 0 0 -0.416094
0.69 0 0 0 0 -0.457981
0.695 0 0 0 0 -0.496261
0.7 0 0 0 0 -0.531127
0.705 0 0 0 0 -0.56277
0.71 0 0 0 0 -0.59138
0.715 0 0 0 0 -0.617144
0.72 0 0 0 0 -0.640248
0.725 0 0 0 0 -0.660873
0.73 0 0 0 0 -0.679198
0.735 0 0 0 0 -0.695398
0.74 0 0 0 0 -0.709642
0.745 0 0 0 0 -0.722093
0.75 0 0 0 0 -0.732906
0.755 0 0 0 0 -0.74223
0.76 0 0 0 0 -0.750201
0.765 0 0 0 0 -0.756945
0.77 0 0 0 0 -0.762577
0.775 0 0 0 0 -0.767196
0.78 0 0 0 0 -0.770888
0.785 0 0 0 0 -0.773722
0.79 0 0 0 0 -0.77575
0.795 0 0 0 0 -0.777009
0.8 0 0 0 0 -0.777517
0.805 0 0 0 0 -0.777275
0.81 0 0 0 0 -0.776265
0.815 0 0 0 0 -0.774456
0.82 0 0 0 0 -0.771799
0.825 0 0 0 0 -0.768233
0.83 0 0 0 0 -0.763683
0.835 0 0 0 0 -0.758065
0.84 0 0 0 0 -0.751285
0.845 0 0 0 0 -0.743247
0.85 0 0 0 0 -0.733848
0.855 0 0 0 0 -0.722989
0.86 0 0 0 0 -0.710572
0.865 0 0 0 0 -0.696505
0.87 0 0 0 0 -0.680709
0.875 0 0 0 0 -0.663114
0.88 0 0 0 0 -0.643667
0.885 0 0 0 0 -0.622338
0.89 0 0 0 0 -0.599114
0.895 0 0 0 0 -0.57401
0.9 0 0 0 0 -0.547069
0.905 0 0 0 0 -0.518364
0.91 0 0 0 0 -0.488
0.915 0 0 0 0 -0.456116
0.92 0 0 0 0 -0.422886
0.925 0 0 0 0 -0.388523
0.93 0 0 0 0 -0.353275
0.935 0 0 0 0 -0.31743
0.94 0 0 0 0 -0.281315
0.945 0 0 0 0 -0.245293
0.95 0 0 0 0 -0.209769
0.955 0 0 0 0 -0.175184
0.96 0 0 0 0 -0.142018
0.965 0 0 0 0 -0.110791
0.97 0 0 0 0 -0.0820554
0.975 0 0 0 0 -0.0564005
0.98 0 0 0 0 -0.0344396
0.985 0 0 0 0 -0.0167917
0.99 0 0 0 0 -0.0040351
0.995 0 0 0 0 0.00340392
1 0 0 0 0 0.00551195
0 0.005 0 0 0 0
0.005 0.005 0 0 0 0
0.01 0.005 0 0 0 73.7281
0.015 0.005 0 0 0 62.0706
0.02 0.005 0 0 0 45.7258
0.025 0.005 0 0 0 33.9611
0.03 0.005 0 0 0 26.0633
0.035 0.005 0 0 0 20.6316
0.04 0.005 0 0 0 16.7248
0.045 0.005 0 0 0 13.7925
0.05 0.005 0 0 0 11.5157
0.055 0.005 0 0 0 9.70342
0.06 0.005 0 0 0 8.23549
0.065 0.005 0 0 0 7.03209
0.07 0.005 0 0 0 6.0375
0.075 0.005 0 0 0 5.21099
0.08 0.005 0 0 0 4.52175
0.085 0.005 0 0 0 3.94576
0.09 0.005 0 0 0 3.46393
0.095 0.005 0 0 0 3.0608
0.1 0.005 0 0 0 2.72374
0.105 0.005 0 0 0 2.44233
0.11 0.005 0 0 0 2.20793
0.115 0.005 0 0 0 2.01335
0.12 0.005 0 0 0 1.85259
0.125 0.005 0 0 0 1.72063
0.13 0.005 0 0 0 1.61328
0.135 0.005 0 0 0 1.52701
0.14 0.005 0 0 0 1.45888
0.145 0.005 0 0 0 1.40641
0.15 0.005 0 0 0 1.36753
0.155 0.005 0 0 0 1.34052
0.16 0.005 0 0 0 1.32391
0.165 0.005 0 0 0 1.31648
0.17 0.005 0 0 0 1.31722
0.175 0.005 0 0 0 1.32527
0.18 0.005 0 0 0 1.33991
0.185 0.005 0 0 0 1.36054
0.19 0.005 0 0 0 1.38665
0.195 0.005 0 0 0 1.41782
0.2 0.005 0 0 0 1.45369
0.205 0.005 0 0 0 1.49395
0.21 0.005 0 0 0 1.53834
0.215 0.005 0 0 0 1.58665
0.22 0.005 0 0 0 1.63866
0.225 0.005 0 0 0 1.69422
0.23 0.005 0 0 0 1.75317
0.235 0.005 0 0 0 1.81538
0.24 0.005 0 0 0 1.88071
0.245 0.005 0 0 0 1.94906
0.25 0.005 0 0 0 2.02031
0.255 0.005 0 0 0 2.09435
0.26 0.005 0 0 0 2.17109
0.265 0.005 0 0 0 2.25041
0.27 0.005 0 0 0 2.33222
0.275 0.005 0 0 0 2.4164
0.28 0.005 0 0 0 2.50286
0.285 0.005 0 0 0 2.59148
0.29 0.005 0 0 0 2.68215
0.295 0.005 0 0 0 2.77474
0.3 0.005 0 0 0 2.86914
0.305 0.005 0 0 0 2.96522
0.31 0.005 0 0 0 3.06285
0.315 0.005 0 0 0 3.16189
0.32 0.005 0 0 0 3.26221
0.325 0.005 0 0 0 3.36364
0.33 0.005 0 0 0 3.46604
0.335 0.005 0 0 0 3.56925
0.34 0.005 0 0 0 3.67311
0.345 0.005 0 0 0 3.77745
0.35 0.005 0 0 0 3.88209
0.355 0.005 0 0 0 3.98687
0.36 0.005 0 0 0 4.09159
0.365 0.005 0 0 0 4.19607
0.37 0.005 0 0 0 4.30012
0.375 0.005 0 0 0 4.40354
0.38 0.005 0 0 0 4.50615
0.385 0.005 0 0 0 4.60773
0.39 0.005 0 0 0 4.70809
0.395 0.005 0 0 0 4.80702
0.4 0.005 0 0 0 4.90431
0.405 0.005 0 0 0 4.99977
0.41 0.005 0 0 0 5.09318
0.415 0.005 0 0 0 5.18433
0.42 0.005 0 0 0 5.27302
0.425 0.005 0 0 0 5.35903
0.43 0.005 0 0 0 5.44218
0.435 0.005 0 0 0 5.52225
0.44 0.005 0 0 0 5.59903
0.445 0.005 0 0 0 5.67235
0.45 0.005 0 0 0 5.74199
0.455 0.005 0 0 0 5.80778
0.46 0.005 0 0 0 5.86952
0.465 0.005 0 0 0 5.92705
0.47 0.005 0 0 0 5.98018
0.475 0.005 0 0 0 6.02875
0.48 0.005 0 0 0 6.0726
0.485 0.005 0 0 0 6.11158
0.49 0.005 0 0 0 6.14555
0.495 0.005 0 0 0 6.17437
0.5 0.005 0 0 0 6.19793
0.505 0.005 0 0 0 6.21609
0.51 0.005 0 0 0 6.22877
0.515 0.005 0 0 0 6.23587
0.52 0.005 0 0 0 6.23731
0.525 0.005 0 0 0 6.23302
0.53 0.005 0 0 0 6.22294
0.535 0.005 0 0 0 6.20704
0.54 0.005 0 0 0 6.18528
0.545 0.005 0 0 0 6.15765
0.55 0.005 0 0 0 6.12415
0.555 0.005 0 0 0 6.0848
0.56 0.005 0 0 0 6.03961
0.565 0.005 0 0 0 5.98864
0.57 0.005 0 0 0 5.93194
0.575 0.005 0 0 0 5.86959
0.58 0.005 0 0 0 5.80168
0.585 0.005 0 0 0 5.72832
0.59 0.005 0 0 0 5.64962
0.595 0.005 0 0 0 5.56572
0.6 0.005 0 0 0 5.47677
0.605 0.005 0 0 0 5.38294
0.61 0.005 0 0 0 5.28441
0.615 0.005 0 0 0 5.18138
0.62 0.005 0 0 0 5.07405
0.625 0.005 0 0 0 4.96264
0.63 0.005 0 0 0 4.84739
0.635 0.005 0 0 0 4.72854
0.64 0.005 0 0 0 4.60635
0.645 0.005 0 0 0 4.48109
0.65 0.005 0 0 0 4.35303
0.655 0.005 0 0 0 4.22247
0.66 0.005 0 0 0 4.08968
0.665 0.005 0 0 0 3.95498
0.67 0.005 0 0 0 3.81865
0.675 0.005 0 0 0 3.68102
0.68 0.005 0 0 0 3.54239
0.685 0.005 0 0 0 3.40307
0.69 0.005 0 0 0 3.26338
0.695 0.005 0 0 0 3.12363
0.7 0.005 0 0 0 2.98412
0.705 0.005 0 0 0 2.84516
0.71 0.005 0 0 0 2.70706
0.715 0.005 0 0 0 2.57011
0.72 0.005 0 0 0 2.43459
0.725 0.005 0 0 0 2.30079
0.73 0.005 0 0 0 2.16898
0.735 0.005 0 0 0 2.03941
0.74 0.005 0 0 0 1.91233
0.745 0.005 0 0 0 1.78798
0.75 0.005 0 0 0 1.66657
0.755 0.005 0 0 0 1.54832
0.76 0.005 0 0 0 1.43342
0.765 0.005 0 0 0 1.32204
0.77 0.005 0 0 0 1.21434
0.775 0.005 0 0 0 1.11048
0.78 0.005 0 0 0 1.01056
0.785 0.005 0 0 0 0.91471
0.79 0.005 0 0 0 0.823014
0.795 0.005 0 0 0 0.73555
0.8 0.005 0 0 0 0.652375
0.805 0.005 0 0 0 0.573531
0.81 0.005 0 0 0 0.499044
0.815 0.005 0 0 0 0.428922
0.82 0.005 0 0 0 0.363159
0.825 0.005 0 0 0 0.301732
0.83 0.005 0 0 0 0.244607
0.835 0.005 0 0 0 0.191734
0.84 0.005 0 0 0 0.143051
0.845 0.005 0 0 0 0.0984838
0.85 0.005 0 0 0 0.057947
0.855 0.005 0 0 0 0.0213456
0.86 0.005 0 0 0 -0.0114248
0.865 0.005 0 0 0 -0.040477
0.87 0.005 0 0 0 -0.065931
0.875 0.005 0 0 0 -0.0879135
0.88 0.005 0 0 0 -0.106557
0.885 0.005 0 0 0 -0.121998
0.89 0.005 0 0 0 -0.134378
0.895 0.005 0 0 0 -0.143843
0.9 0.005 0 0 0 -0.15054
0.905 0.005 0 0 0 -0.154622
0.91 0.005 0 0 0 -0.156241
0.915 0.005 0 0 0 -0.155556
0.92 0.005 0 0 0 -0.152727
0.925 0.005 0 0 0 -0.147919
0.93 0.005 0 0 0 -0.141304
0.935 0.005 0 0 0 -0.13306
0.94 0.005 0 0 0 -0.123375
0.945 0.005 0 0 0 -0.112451
0.95 0.005 0 0 0 -0.100506
0.955 0.005 0 0 0 -0.0877809
0.96 0.005 0 0 0 -0.0745449
0.965 0.005 0 0 0 -0.061105
0.97 0.005 0 0 0 -0.0478154
0.975 0.005 0 0 0 -0.0350899
0.98 0.005 0 0 0 -0.0234151
0.985 0.005 0 0 0 -0.0133598
0.99 0.005 0 0 0 -0.00556677
0.995 0.005 0 0 0 -0.000680711
1 0.005 0 0 0 0.000923324
0 0.01 0 0 0.000923324 0
0.005 0.01 0 0 0 -326.272
0.01 0.01 -0.180044 0.0775882 -0.000921602 -44.4033
0.015 0.01 -0.184859 -0.035003 -0.000775882 9.52958
0.02 0.01 -0.15638 -0.0351368 -0.000571572 19.1164
0.025 0.01 -0.127544 -0.0245781 -0.000424514 18.99
0.03 0.01 -0.104135 -0.016662 -0.000325791 16.8239
0.035 0.01 -0.0859032 -0.0116731 -0.000257894 14.4922
0.04 0.01 -0.0716531 -0.00854878 -0.00020906 12.4236
0.045 0.01 -0.0603422 -0.0065114 -0.000172407 10.6721
0.05 0.01 -0.0512156 -0.00511138 -0.000143946 9.20279
0.055 0.01 -0.0437489 -0.00410028 -0.000121293 7.96831
0.06 0.01 -0.0375753 -0.00333916 -0.000102944 6.92689
0.065 0.01 -0.0324316 -0.00274748 -8.79012e-05 6.04496
0.07 0.01 -0.0281236 -0.00227638 -7.54687e-05 5.29597
0.075 0.01 -0.0245028 -0.00189469 -6.51374e-05 4.65877
0.08 0.01 -0.0214534 -0.00158153 -5.65218e-05 4.11625
0.085 0.01 -0.0188826 -0.00132227 -4.9322e-05 3.65435
0.09 0.01 -0.0167149 -0.0011062 -4.32991e-05 3.26139
0.095 0.01 -0.0148883 -0.000925235 -3.826e-05 2.92756
0.1 0.01 -0.0133511 -0.000773089 -3.40467e-05 2.64454
0.105 0.01 -0.0120602 -0.000644762 -3.05291e-05 2.40526
0.11 0.01 -0.0109793 -0.000536221 -2.75991e-05 2.20371
0.115 0.01 -0.0100779 -0.00044417 -2.51668e-05 2.03472
0.12 0.01 -0.00933025 -0.000365891 -2.31574e-05 1.89391
0.125 0.01 -0.00871458 -0.000299135 -2.15079e-05 1.7775
0.13 0.01 -0.00821253 -0.000242027 -2.0166e-05 1.68228
0.135 0.01 -0.00780856 -0.000193001 -1.90876e-05 1.60548
0.14 0.01 -0.00748953 -0.00015075 -1.82359e-05 1.54477
0.145 0.01 -0.00724436 -0.000114176 -1.75801e-05 1.49814
0.15 0.01 -0.00706367 -8.23596e-05 -1.70941e-05 1.46387
0.155 0.01 -0.00693954 -5.45312e-05 -1.67564e-05 1.4405
0.16 0.01 -0.00686529 -3.00439e-05 -1.65488e-05 1.4268
0.165 0.01 -0.00683526 -8.35617e-06 -1.6456e-05 1.42171
0.17 0.01 -0.0068447 1.09858e-05 -1.64652e-05 1.42432
0.175 0.01 -0.00688958 2.83615e-05 -1.65658e-05 1.43386
0.18 0.01 -0.00696651 4.40881e-05 -1.67488e-05 1.44969
0.185 0.01 -0.00707259 5.84301e-05 -1.70067e-05 1.47125
0.19 0.01 -0.00720541 7.16072e-05 -1.73331e-05 1.49805
0.195 0.01 -0.00736288 8.3802e-05 -1.77227e-05 1.52968
0.2 0.01 -0.00754325 9.51652e-05 -1.81711e-05 1.56581
0.205 0.01 -0.007745 0.000105821 -1.86744e-05 1.60612
0.21 0.01 -0.00796683 0.000115871 -1.92293e-05 1.65034
0.215 0.01 -0.00820761 0.000125398 -1.98331e-05 1.69825
0.22 0.01 -0.00846635 0.000134469 -2.04832e-05 1.74965
0.225 0.01 -0.00874217 0.000143138 -2.11777e-05 1.80435
0.23 0.01 -0.00903429 0.000151446 -2.19146e-05 1.86218
0.235 0.01 -0.009342 0.000159426 -2.26922e-05 1.92299
0.24 0.01 -0.00966463 0.000167104 -2.35089e-05 1.98665
0.245 0.01 -0.0100016 0.000174498 -2.43632e-05 2.05302
0.25 0.01 -0.0103522 0.000181619 -2.52538e-05 2.12197
0.255 0.01 -0.010716 0.000188477 -2.61794e-05 2.19339
0.26 0.01 -0.0110924 0.000195075 -2.71386e-05 2.26716
0.265 0.01 -0.0114808 0.000201414 -2.81301e-05 2.34316
0.27 0.01 -0.0118807 0.000207492 -2.91527e-05 2.42126
0.275 0.01 -0.0122916 0.000213304 -3.02051e-05 2.50136
0.28 0.01 -0.0127128 0.000218844 -3.12858e-05 2.58334
0.285 0.01 -0.0131438 0.000224104 -3.23935e-05 2.66707
0.29 0.01 -0.013584 0.000229075 -3.35268e-05 2.75243
0.295 0.01 -0.0140328 0.000233745 -3.46842e-05 2.8393
0.3 0.01 -0.0144896 0.000238104 -3.58643e-05 2.92753
0.305 0.01 -0.0149537 0.000242139 -3.70653e-05 3.01701
0.31 0.01 -0.0154244 0.000245839 -3.82857e-05 3.1076
0.315 0.01 -0.015901 0.000249189 -3.95237e-05 3.19914
0.32 0.01 -0.0163829 0.000252178 -4.07776e-05 3.29151
0.325 0.01 -0.0168692 0.000254791 -4.20455e-05 3.38455
0.33 0.01 -0.0173593 0.000257015 -4.33255e-05 3.4781
0.335 0.01 -0.0178524 0.000258838 -4.46156e-05 3.57202
0.34 0.01 -0.0183476 0.000260247 -4.59139e-05 3.66615
0.345 0.01 -0.018844 0.000261228 -4.72181e-05 3.76032
0.35 0.01 -0.019341 0.000261772 -4.85262e-05 3.85436
0.355 0.01 -0.0198375 0.000261865 -4.98359e-05 3.94812
0.36 0.01 -0.0203328 0.000261497 -5.11449e-05 4.04142
0.365 0.01 -0.0208259 0.000260658 -5.24509e-05 4.13408
0.37 0.01 -0.0213159 0.000259339 -5.37515e-05 4.22593
0.375 0.01 -0.0218019 0.000257532 -5.50443e-05 4.3168
0.38 0.01 -0.0222829 0.000255228 -5.63269e-05 4.40651
0.385 0.01 -0.022758 0.000252422 -5.75966e-05 4.49488
0.39 0.01 -0.0232263 0.000249107 -5.88511e-05 4.58172
0.395 0.01 -0.0236868 0.000245279 -6.00878e-05 4.66687
0.4 0.01 -0.0241384 0.000240936 -6.1304e-05 4.75014
0.405 0.01 -0.0245804 0.000236074 -6.24972e-05 4.83135
0.41 0.01 -0.0250116 0.000230693 -6.36648e-05 4.91033
0.415 0.01 -0.0254311 0.000224794 -6.48042e-05 4.98689
0.42 0.01 -0.0258381 0.000218377 -6.59128e-05 5.06088
0.425 0.01 -0.0262315 0.000211447 -6.6988e-05 5.13211
0.43 0.01 -0.0266103 0.000204006 -6.80273e-05 5.20042
0.435 0.01 -0.0269738 0.000196062 -6.90281e-05 5.26564
0.44 0.01 -0.027321 0.00018762 -6.9988e-05 5.32761
0.445 0.01 -0.0276509 0.000178691 -7.09044e-05 5.38617
0.45 0.01 -0.0279628 0.000169282 -7.1775e-05 5.44118
0.455 0.01 -0.0282557 0.000159407 -7.25973e-05 5.49247
0.46 0.01 -0.0285289 0.000149078 -7.33691e-05 5.53992
0.465 0.01 -0.0287816 0.00013831 -7.40882e-05 5.58339
0.47 0.01 -0.029013 0.000127117 -7.47523e-05 5.62274
0.475 0.01 -0.0292224 0.000115518 -7.53595e-05 5.65786
0.48 0.01 -0.0294091 0.000103532 -7.59076e-05 5.68862
0.485 0.01 -0.0295725 9.11781e-05 -7.63949e-05 5.71492
0.49 0.01 -0.029712 7.84788e-05 -7.68195e-05 5.73666
0.495 0.01 -0.0298269 6.54572e-05 -7.71798e-05 5.75375
0.5 0.01 -0.0299168 5.21378e-05 -7.74742e-05 5.76611
0.505 0.01 -0.0299812 3.85466e-05 -7.77013e-05 5.77366
0.51 0.01 -0.0300198 2.4711e-05 -7.78598e-05 5.77633
0.515 0.01 -0.030032 1.06597e-05 -7.79485e-05 5.77408
0.52 0.01 -0.0300176 -3.57759e-06 -7.79665e-05 5.76686
0.525 0.01 -0.0299764 -1.79696e-05 -7.79129e-05 5.75463
0.53 0.01 -0.0299081 -3.24841e-05 -7.77869e-05 5.73738
0.535 0.01 -0.0298127 -4.70878e-05 -7.75881e-05 5.71509
0.54 0.01 -0.0296899 -6.17462e-05 -7.73162e-05 5.68776
0.545 0.01 -0.02954 -7.64241e-05 -7.69708e-05 5.65539
0.55 0.01 -0.0293628 -9.10855e-05 -7.6552e-05 5.61802
0.555 0.01 -0.0291585 -0.000105693 -7.60601e-05 5.57568
0.56 0.01 -0.0289273 -0.00012021 -7.54952e-05 5.52841
0.565 0.01 -0.0286694 -0.000134599 -7.48581e-05 5.47626
0.57 0.01 -0.0283852 -0.00014882 -7.41494e-05 5.41932
0.575 0.01 -0.0280751 -0.000162835 -7.337e-05 5.35765
0.58 0.01 -0.0277394 -0.000176607 -7.25212e-05 5.29136
0.585 0.01 -0.0273788 -0.000190095 -7.16041e-05 5.22054
0.59 0.01 -0.0269939 -0.000203262 -7.06203e-05 5.14532
0.595 0.01 -0.0265852 -0.00021607 -6.95716e-05 5.06582
0.6 0.01 -0.0261535 -0.000228481 -6.84598e-05 4.98218
0.605 0.01 -0.0256996 -0.000240459 -6.72869e-05 4.89456
0.61 0.01 -0.0252244 -0.000251968 -6.60553e-05 4.8031
0.615 0.01 -0.0247288 -0.000262973 -6.47674e-05 4.70799
0.62 0.01 -0.0242137 -0.00027344 -6.34257e-05 4.60941
0.625 0.01 -0.0236803 -0.000283338 -6.20331e-05 4.50754
0.63 0.01 -0.0231295 -0.000292637 -6.05925e-05 4.40259
0.635 0.01 -0.0225624 -0.000301307 -5.91068e-05 4.29477
0.64 0.01 -0.0219804 -0.000309321 -5.75795e-05 4.18428
0.645 0.01 -0.0213846 -0.000316657 -5.60138e-05 4.07136
0.65 0.01 -0.0207763 -0.000323291 -5.4413e-05 3.95624
0.655 0.01 -0.0201568 -0.000329203 -5.2781e-05 3.83915
0.66 0.01 -0.0195274 -0.000334377 -5.11211e-05 3.72032
0.665 0.01 -0.0188895 -0.000338798 -4.94373e-05 3.60002
0.67 0.01 -0.0182445 -0.000342455 -4.77332e-05 3.47849
0.675 0.01 -0.0175937 -0.000345339 -4.60128e-05 3.35597
0.68 0.01 -0.0169386 -0.000347445 -4.42799e-05 3.23272
0.685 0.01 -0.0162807 -0.00034877 -4.25385e-05 3.109
0.69 0.01 -0.0156212 -0.000349316 -4.07923e-05 2.98506
0.695 0.01 -0.0149616 -0.000349085 -3.90454e-05 2.86115
0.7 0.01 -0.0143034 -0.000348086 -3.73016e-05 2.73753
0.705 0.01 -0.0136479 -0.000346328 -3.55646e-05 2.61444
0.71 0.01 -0.0129965 -0.000343825 -3.38384e-05 2.49213
0.715 0.01 -0.0123506 -0.000340593 -3.21264e-05 2.37083
0.72 0.01 -0.0117113 -0.000336653 -3.04325e-05 2.25079
0.725 0.01 -0.0110801 -0.000332026 -2.876e-05 2.13223
0.73 0.01 -0.0104581 -0.000326739 -2.71123e-05 2.01537
0.735 0.01 -0.00984646 -0.000320818 -2.54926e-05 1.90042
0.74 0.01 -0.00924639 -0.000314294 -2.39041e-05 1.78759
0.745 0.01 -0.00865894 -0.0003072 -2.23497e-05 1.67707
0.75 0.01 -0.00808511 -0.000299571 -2.08322e-05 1.56905
0.755 0.01 -0.00752586 -0.000291443 -1.93541e-05 1.46369
0.76 0.01 -0.00698207 -0.000282855 -1.79178e-05 1.36117
0.765 0.01 -0.00645456 -0.000273847 -1.65255e-05 1.26162
0.77 0.01 -0.00594407 -0.000264458 -1.51793e-05 1.1652
0.775 0.01 -0.00545127 -0.000254732 -1.3881e-05 1.07201
0.78 0.01 -0.00497675 -0.00024471 -1.2632e-05 0.982169
0.785 0.01 -0.00452103 -0.000234436 -1.14339e-05 0.89578
0.79 0.01 -0.00408456 -0.000223951 -1.02877e-05 0.812925
0.795 0.01 -0.0036677 -0.0002133 -9.19438e-06 0.733674
0.8 0.01 -0.00327073 -0.000202523 -8.15469e-06 0.658084
0.805 0.01 -0.00289388 -0.000191664 -7.16914e-06 0.586198
0.81 0.01 -0.00253727 -0.000180762 -6.23805e-06 0.518049
0.815 0.01 -0.00220098 -0.000169857 -5.36152e-06 0.453651
0.82 0.01 -0.001885 -0.000158987 -4.53948e-06 0.393011
0.825 0.01 -0.00158925 -0.000148188 -3.77165e-06 0.33612
0.83 0.01 -0.0013136 -0.000137497 -3.05758e-06 0.282959
0.835 0.01 -0.00105784 -0.000126944 -2.39667e-06 0.233497
0.84 0.01 -0.000821706 -0.000116562 -1.78813e-06 0.18769
0.845 0.01 -0.000604886 -0.000106379 -1.23103e-06 0.145487
0.85 0.01 -0.000407008 -9.64214e-05 -7.24323e-07 0.106825
0.855 0.01 -0.000227654 -8.67133e-05 -2.66805e-07 0.0716322
0.86 0.01 -6.63605e-05 -7.72768e-05 1.42826e-07 0.0398291
0.865 0.01 7.73739e-05 -6.81312e-05 5.05978e-07 0.0113274
0.87 0.01 0.000204089 -5.92941e-05 8.24154e-07 -0.0139678
0.875 0.01 0.000314356 -5.07805e-05 1.09894e-06 -0.0361585
0.88 0.01 0.000408777 -4.26038e-05 1.33198e-06 -0.0553522
0.885 0.01 0.000487978 -3.47753e-05 1.52499e-06 -0.0716623
0.89 0.01 0.00055261 -2.73048e-05 1.67974e-06 -0.085207
0.895 0.01 0.000603341 -2.02011e-05 1.79805e-06 -0.0961091
0.9 0.01 0.000640863 -1.34718e-05 1.88177e-06 -0.104496
0.905 0.01 0.000665881 -7.12427e-06 1.93278e-06 -0.110499
0.91 0.01 0.00067912 -1.16611e-06 1.95303e-06 -0.114254
0.915 0.01 0.000681325 4.39433e-06 1.94446e-06 -0.115902
0.92 0.01 0.000673258 9.54704e-06 1.90909e-06 -0.115587
0.925 0.01 0.00065571 1.42794e-05 1.849e-06 -0.113461
0.93 0.01 0.000629499 1.85749e-05 1.76631e-06 -0.109681
0.935 0.01 0.000595484 2.24119e-05 1.66326e-06 -0.104413
0.94 0.01 0.000554571 2.57619e-05 1.5422e-06 -0.097833
0.945 0.01 0.000507727 2.85872e-05 1.40565e-06 -0.0901287
0.95 0.01 0.000455998 3.08386e-05 1.25633e-06 -0.0815025
0.955 0.01 0.000400529 3.24523e-05 1.09727e-06 -0.0721751
0.96 0.01 0.000342588 3.33454e-05 9.31815e-07 -0.0623882
0.965 0.01 0.000283596 3.34123e-05 7.63816e-07 -0.0524084
0.97 0.01 0.000225159 3.25192e-05 5.97694e-07 -0.0425301
0.975 0.01 0.000169099 3.05006e-05 4.38625e-07 -0.033075
0.98 0.01 0.000117481 2.71628e-05 2.92689e-07 -0.024387
0.985 0.01 7.25969e-05 2.23104e-05 1.66998e-07 -0.0168102
0.99 0.01 3.68733e-05 1.58489e-05 6.95847e-08 -0.0106361
0.995 0.01 1.25499e-05 8.11263e-06 8.5088e-09 -0.00598032
1 0.01 8.49912e-07 8.5088e-07 -1.15416e-08 -0.00252699
0 0.015 0 0 -0.00067993 0
0.005 0.015 0 0 0 -255.965
0.01 0.015 -0.152854 0.184859 -0.00180044 -79.2571
0.015 0.015 -0.206238 -0.0236641 -0.00184859 -16.6395
0.02 0.015 -0.204583 -0.057315 -0.0015638 2.31211
0.025 0.015 -0.184567 -0.0522447 -0.00127544 7.92336
0.03 0.015 -0.161054 -0.0416412 -0.00104135 9.2472
0.035 0.015 -0.139032 -0.0324823 -0.000859032 9.11467
0.04 0.015 -0.119789 -0.025561 -0.000716531 8.49347
0.045 0.015 -0.103361 -0.0204375 -0.000603422 7.73688
0.05 0.015 -0.0894276 -0.0165933 -0.000512156 6.97823
0.055 0.015 -0.0776143 -0.0136403 -0.000437489 6.26725
0.06 0.015 -0.0675832 -0.0113172 -0.000375753 5.62057
0.065 0.015 -0.0590508 -0.00945168 -0.000324316 5.04132
0.07 0.015 -0.051784 -0.00792882 -0.000281236 4.52718
0.075 0.015 -0.0455909 -0.00667015 -0.000245028 4.07364
0.08 0.015 -0.0403126 -0.00562021 -0.000214534 3.6755
0.085 0.015 -0.0358164 -0.00473846 -0.000188826 3.32751
0.09 0.015 -0.0319904 -0.00399426 -0.000167149 3.02458
0.095 0.015 -0.0287402 -0.00336379 -0.000148883 2.76199
0.1 0.015 -0.0259851 -0.0028281 -0.000133511 2.53538
0.105 0.015 -0.0236565 -0.00237181 -0.000120602 2.34079
0.11 0.015 -0.0216959 -0.00198229 -0.000109793 2.17464
0.115 0.015 -0.020053 -0.00164905 -0.000100779 2.03372
0.12 0.015 -0.0186849 -0.00136331 -9.33023e-05 1.91515
0.125 0.015 -0.0175549 -0.00111771 -8.71457e-05 1.81639
0.13 0.015 -0.0166317 -0.000906012 -8.21252e-05 1.73519
0.135 0.015 -0.0158885 -0.000722983 -7.80855e-05 1.66956
0.14 0.015 -0.0153024 -0.000564181 -7.48952e-05 1.61776
0.145 0.015 -0.0148538 -0.00042585 -7.24435e-05 1.57825
0.15 0.015 -0.0145262 -0.000304811 -7.06366e-05 1.54971
0.155 0.015 -0.0143053 -0.000198375 -6.93953e-05 1.53096
0.16 0.015 -0.014179 -0.00010427 -6.86528e-05 1.521
0.165 0.015 -0.0141372 -2.05748e-05 -6.83525e-05 1.51893
0.17 0.015 -0.0141709 5.4331e-05 -6.84469e-05 1.524
0.175 0.015 -0.0142728 0.000121813 -6.88958e-05 1.53554
0.18 0.015 -0.0144365 0.000183018 -6.9665e-05 1.55296
0.185 0.015 -0.0146565 0.00023891 -7.07259e-05 1.57577
0.19 0.015 -0.0149283 0.000290295 -7.2054e-05 1.60353
0.195 0.015 -0.0152479 0.000337846 -7.36287e-05 1.63585
0.2 0.015 -0.0156119 0.000382122 -7.54324e-05 1.6724
0.205 0.015 -0.0160172 0.000423585 -7.74499e-05 1.71288
0.21 0.015 -0.0164614 0.000462616 -7.96682e-05 1.75703
0.215 0.015 -0.0169422 0.000499527 -8.2076e-05 1.80462
0.22 0.015 -0.0174575 0.000534572 -8.46634e-05 1.85543
0.225 0.015 -0.0180057 0.000567953 -8.74217e-05 1.90927
0.23 0.015 -0.018585 0.000599832 -9.03429e-05 1.96598
0.235 0.015 -0.0191941 0.000630337 -9.34199e-05 2.02538
0.24 0.015 -0.0198315 0.000659563 -9.66462e-05 2.08733
0.245 0.015 -0.0204959 0.000687582 -0.000100016 2.15167
0.25 0.015 -0.0211862 0.000714445 -0.000103522 2.21827
0.255 0.015 -0.021901 0.000740184 -0.00010716 2.28701
0.26 0.015 -0.0226393 0.000764816 -0.000110924 2.35773
0.265 0.015 -0.0233999 0.000788347 -0.000114808 2.43032
0.27 0.015 -0.0241816 0.000810771 -0.000118807 2.50465
0.275 0.015 -0.0249832 0.000832074 -0.000122916 2.58058
0.28 0.015 -0.0258036 0.000852234 -0.000127128 2.65799
0.285 0.015 -0.0266416 0.000871224 -0.000131438 2.73674
0.29 0.015 -0.0274959 0.00088901 -0.00013584 2.81671
0.295 0.015 -0.0283653 0.000905557 -0.000140328 2.89777
0.3 0.015 -0.0292484 0.000920824 -0.000144896 2.97976
0.305 0.015 -0.030144 0.000934769 -0.000149537 3.06256
0.31 0.015 -0.0310507 0.00094735 -0.000154244 3.14603
0.315 0.015 -0.0319671 0.00095852 -0.00015901 3.23002
0.32 0.015 -0.0328917 0.000968235 -0.000163829 3.31439
0.325 0.015 -0.0338231 0.00097645 -0.000168693 3.39898
0.33 0.015 -0.0347598 0.00098312 -0.000173593 3.48366
0.335 0.015 -0.0357002 0.000988201 -0.000178524 3.56827
0.34 0.015 -0.0366427 0.000991651 -0.000183476 3.65265
0.345 0.015 -0.0375856 0.000993429 -0.00018844 3.73665
0.35 0.015 -0.0385275 0.000993496 -0.00019341 3.82012
0.355 0.015 -0.0394665 0.000991815 -0.000198376 3.9029
0.36 0.015 -0.0404009 0.000988354 -0.000203328 3.98483
0.365 0.015 -0.0413291 0.000983081 -0.000208259 4.06575
0.37 0.015 -0.0422493 0.000975969 -0.000213159 4.14551
0.375 0.015 -0.0431598 0.000966993 -0.000218019 4.22394
0.38 0.015 -0.0440587 0.000956133 -0.000222829 4.3009
0.385 0.015 -0.0449442 0.000943373 -0.000227581 4.37621
0.39 0.015 -0.0458146 0.000928698 -0.000232263 4.44974
0.395 0.015 -0.0466681 0.000912102 -0.000236868 4.52132
0.4 0.015 -0.0475029 0.000893579 -0.000241385 4.59081
0.405 0.015 -0.0483172 0.000873129 -0.000245804 4.65805
0.41 0.015 -0.0491092 0.000850759 -0.000250116 4.7229
0.415 0.015 -0.0498772 0.000826476 -0.000254312 4.78521
0.42 0.015 -0.0506194 0.000800295 -0.000258381 4.84485
0.425 0.015 -0.0513341 0.000772236 -0.000262315 4.90168
0.43 0.015 -0.0520196 0.000742322 -0.000266104 4.95557
0.435 0.015 -0.0526743 0.000710582 -0.000269738 5.00639
0.44 0.015 -0.0532966 0.000677051 -0.00027321 5.05401
0.445 0.015 -0.0538848 0.000641767 -0.000276509 5.09832
0.45 0.015 -0.0544375 0.000604775 -0.000279628 5.13921
0.455 0.015 -0.0549532 0.000566124 -0.000282557 5.17657
0.46 0.015 -0.0554303 0.000525869 -0.000285289 5.2103
0.465 0.015 -0.0558677 0.00048407 -0.000287816 5.2403
0.47 0.015 -0.0562639 0.00044079 -0.00029013 5.26649
0.475 0.015 -0.0566177 0.0003961 -0.000292225 5.28878
0.48 0.015 -0.056928 0.000350075 -0.000294092 5.3071
0.485 0.015 -0.0571936 0.000302794 -0.000295726 5.32139
0.49 0.015 -0.0574136 0.000254342 -0.00029712 5.33158
0.495 0.015 -0.0575871 0.000204808 -0.00029827 5.33762
0.5 0.015 -0.0577131 0.000154286 -0.000299169 5.33947
0.505 0.015 -0.057791 0.000102876 -0.000299813 5.3371
0.51 0.015 -0.0578201 5.06787e-05 -0.000300198 5.33046
0.515 0.015 -0.0577998 -2.19702e-06 -0.00030032 5.31955
0.52 0.015 -0.0577298 -5.56403e-05 -0.000300176 5.30435
0.525 0.015 -0.0576095 -0.000109536 -0.000299764 5.28487
0.53 0.015 -0.0574389 -0.000163766 -0.000299082 5.2611
0.535 0.015 -0.0572177 -0.000218207 -0.000298127 5.23306
0.54 0.015 -0.056946 -0.000272734 -0.0002969 5.20077
0.545 0.015 -0.0566238 -0.00032722 -0.0002954 5.16427
0.55 0.015 -0.0562514 -0.000381534 -0.000293628 5.12361
0.555 0.015 -0.055829 -0.000435543 -0.000291585 5.07882
0.56 0.015 -0.0553572 -0.000489114 -0.000289273 5.02996
0.565 0.015 -0.0548365 -0.000542111 -0.000286695 4.97712
0.57 0.015 -0.0542675 -0.000594398 -0.000283853 4.92035
0.575 0.015 -0.0536512 -0.000645837 -0.000280751 4.85976
0.58 0.015 -0.0529883 -0.000696293 -0.000277395 4.79542
0.585 0.015 -0.05228 -0.000745629 -0.000273789 4.72745
0.59 0.015 -0.0515274 -0.000793711 -0.000269939 4.65595
0.595 0.015 -0.0507318 -0.000840406 -0.000265852 4.58105
0.6 0.015 -0.0498945 -0.000885582 -0.000261536 4.50286
0.605 0.015 -0.0490172 -0.000929112 -0.000256997 4.42152
0.61 0.015 -0.0481013 -0.000970872 -0.000252245 4.33718
0.615 0.015 -0.0471487 -0.00101074 -0.000247289 4.24997
0.62 0.015 -0.046161 -0.0010486 -0.000242138 4.16006
0.625 0.015 -0.0451404 -0.00108434 -0.000236803 4.06761
0.63 0.015 -0.0440887 -0.00111786 -0.000231295 3.97277
0.635 0.015 -0.043008 -0.00114906 -0.000225625 3.87573
0.64 0.015 -0.0419005 -0.00117785 -0.000219805 3.77666
0.645 0.015 -0.0407685 -0.00120415 -0.000213847 3.67575
0.65 0.015 -0.0396143 -0.00122787 -0.000207764 3.57317
0.655 0.015 -0.0384402 -0.00124895 -0.000201569 3.46913
0.66 0.015 -0.0372488 -0.00126734 -0.000195275 3.3638
0.665 0.015 -0.0360423 -0.00128298 -0.000188896 3.25739
0.67 0.015 -0.0348234 -0.00129584 -0.000182445 3.1501
0.675 0.015 -0.0335946 -0.00130589 -0.000175938 3.04212
0.68 0.015 -0.0323584 -0.00131311 -0.000169387 2.93365
0.685 0.015 -0.0311174 -0.00131749 -0.000162807 2.8249
0.69 0.015 -0.0298742 -0.00131905 -0.000156212 2.71606
0.695 0.015 -0.0286313 -0.00131778 -0.000149617 2.60734
0.7 0.015 -0.0273912 -0.00131373 -0.000143035 2.49893
0.705 0.015 -0.0261565 -0.00130692 -0.00013648 2.39102
0.71 0.015 -0.0249296 -0.00129741 -0.000129966 2.28381
0.715 0.015 -0.0237129 -0.00128525 -0.000123506 2.17748
0.72 0.015 -0.0225088 -0.00127052 -0.000117113 2.07223
0.725 0.015 -0.0213196 -0.00125328 -0.000110801 1.96824
0.73 0.015 -0.0201475 -0.00123364 -0.000104581 1.86567
0.735 0.015 -0.0189946 -0.00121169 -9.84648e-05 1.7647
0.74 0.015 -0.0178631 -0.00118754 -9.24641e-05 1.66549
0.745 0.015 -0.0167548 -0.0011613 -8.65895e-05 1.5682
0.75 0.015 -0.0156717 -0.00113309 -8.08513e-05 1.47298
0.755 0.015 -0.0146154 -0.00110305 -7.52587e-05 1.37997
0.76 0.015 -0.0135876 -0.00107131 -6.98208e-05 1.28929
0.765 0.015 -0.0125897 -0.00103802 -6.45457e-05 1.20108
0.77 0.015 -0.0116232 -0.00100331 -5.94408e-05 1.11546
0.775 0.015 -0.0106894 -0.000967331 -5.45127e-05 1.03252
0.78 0.015 -0.0097892 -0.000930243 -4.97675e-05 0.95236
0.785 0.015 -0.00892373 -0.000892194 -4.52104e-05 0.875072
0.79 0.015 -0.0080938 -0.000853339 -4.08456e-05 0.800729
0.795 0.015 -0.00730012 -0.00081383 -3.6677e-05 0.729397
0.8 0.015 -0.00654325 -0.00077382 -3.27073e-05 0.661132
0.805 0.015 -0.00582363 -0.00073346 -2.89388e-05 0.595979
0.81 0.015 -0.00514155 -0.000692896 -2.53727e-05 0.533973
0.815 0.015 -0.0044972 -0.000652272 -2.20098e-05 0.475139
0.82 0.015 -0.0038906 -0.000611729 -1.885e-05 0.419491
0.825 0.015 -0.00332166 -0.000571399 -1.58925e-05 0.367035
0.83 0.015 -0.00279019 -0.000531413 -1.3136e-05 0.317764
0.835 0.015 -0.00229586 -0.000491891 -1.05783e-05 0.271664