Title=" Lid Driven Flow"
VARIABLES="X","Y","U","V","psi","xi"
ZONE T= "BOX", I= 201, J=201, F=POINT
0 0 0 0 0.00121729 0
0.005 0 0 0 0 0
0.01 0 0 0 0 0
0.015 0 0 0 0 161.89
0.02 0 0 0 0 176.13
0.025 0 0 0 0 155.632
0.03 0 0 0 0 133.272
0.035 0 0 0 0 115.785
0.04 0 0 0 0 102.96
0.045 0 0 0 0 93.4494
0.05 0 0 0 0 86.1394
0.055 0 0 0 0 80.2961
0.06 0 0 0 0 75.4607
0.065 0 0 0 0 71.3446
0.07 0 0 0 0 67.7611
0.075 0 0 0 0 64.5847
0.08 0 0 0 0 61.7285
0.085 0 0 0 0 59.1304
0.09 0 0 0 0 56.745
0.095 0 0 0 0 54.5383
0.1 0 0 0 0 52.4847
0.105 0 0 0 0 50.5642
0.11 0 0 0 0 48.7611
0.115 0 0 0 0 47.0627
0.12 0 0 0 0 45.459
0.125 0 0 0 0 43.9414
0.13 0 0 0 0 42.5027
0.135 0 0 0 0 41.1369
0.14 0 0 0 0 39.8385
0.145 0 0 0 0 38.603
0.15 0 0 0 0 37.426
0.155 0 0 0 0 36.3037
0.16 0 0 0 0 35.2327
0.165 0 0 0 0 34.2097
0.17 0 0 0 0 33.2316
0.175 0 0 0 0 32.2958
0.18 0 0 0 0 31.3994
0.185 0 0 0 0 30.5402
0.19 0 0 0 0 29.7157
0.195 0 0 0 0 28.9236
0.2 0 0 0 0 28.162
0.205 0 0 0 0 27.4287
0.21 0 0 0 0 26.722
0.215 0 0 0 0 26.0399
0.22 0 0 0 0 25.3809
0.225 0 0 0 0 24.7434
0.23 0 0 0 0 24.1257
0.235 0 0 0 0 23.5265
0.24 0 0 0 0 22.9444
0.245 0 0 0 0 22.3782
0.25 0 0 0 0 21.8267
0.255 0 0 0 0 21.2887
0.26 0 0 0 0 20.7632
0.265 0 0 0 0 20.2492
0.27 0 0 0 0 19.7458
0.275 0 0 0 0 19.2522
0.28 0 0 0 0 18.7676
0.285 0 0 0 0 18.2913
0.29 0 0 0 0 17.8225
0.295 0 0 0 0 17.3608
0.3 0 0 0 0 16.9056
0.305 0 0 0 0 16.4564
0.31 0 0 0 0 16.0127
0.315 0 0 0 0 15.5742
0.32 0 0 0 0 15.1406
0.325 0 0 0 0 14.7116
0.33 0 0 0 0 14.2869
0.335 0 0 0 0 13.8664
0.34 0 0 0 0 13.4498
0.345 0 0 0 0 13.0372
0.35 0 0 0 0 12.6284
0.355 0 0 0 0 12.2235
0.36 0 0 0 0 11.8223
0.365 0 0 0 0 11.425
0.37 0 0 0 0 11.0317
0.375 0 0 0 0 10.6423
0.38 0 0 0 0 10.2571
0.385 0 0 0 0 9.87627
0.39 0 0 0 0 9.49987
0.395 0 0 0 0 9.12814
0.4 0 0 0 0 8.76128
0.405 0 0 0 0 8.39952
0.41 0 0 0 0 8.04309
0.415 0 0 0 0 7.69222
0.42 0 0 0 0 7.34717
0.425 0 0 0 0 7.00819
0.43 0 0 0 0 6.67552
0.435 0 0 0 0 6.34941
0.44 0 0 0 0 6.03012
0.445 0 0 0 0 5.71787
0.45 0 0 0 0 5.4129
0.455 0 0 0 0 5.11543
0.46 0 0 0 0 4.82565
0.465 0 0 0 0 4.54376
0.47 0 0 0 0 4.26993
0.475 0 0 0 0 4.00431
0.48 0 0 0 0 3.74704
0.485 0 0 0 0 3.49823
0.49 0 0 0 0 3.25797
0.495 0 0 0 0 3.02633
0.5 0 0 0 0 2.80336
0.505 0 0 0 0 2.58907
0.51 0 0 0 0 2.38347
0.515 0 0 0 0 2.18654
0.52 0 0 0 0 1.99822
0.525 0 0 0 0 1.81845
0.53 0 0 0 0 1.64715
0.535 0 0 0 0 1.48419
0.54 0 0 0 0 1.32945
0.545 0 0 0 0 1.18279
0.55 0 0 0 0 1.04404
0.555 0 0 0 0 0.913019
0.56 0 0 0 0 0.789536
0.565 0 0 0 0 0.673386
0.57 0 0 0 0 0.564353
0.575 0 0 0 0 0.46221
0.58 0 0 0 0 0.366724
0.585 0 0 0 0 0.277655
0.59 0 0 0 0 0.194759
0.595 0 0 0 0 0.117787
0.6 0 0 0 0 0.0464892
0.605 0 0 0 0 -0.0193872
0.61 0 0 0 0 -0.0800934
0.615 0 0 0 0 -0.13588
0.62 0 0 0 0 -0.186995
0.625 0 0 0 0 -0.233684
0.63 0 0 0 0 -0.276189
0.635 0 0 0 0 -0.314747
0.64 0 0 0 0 -0.349589
0.645 0 0 0 0 -0.380943
0.65 0 0 0 0 -0.409029
0.655 0 0 0 0 -0.434059
0.66 0 0 0 0 -0.45624
0.665 0 0 0 0 -0.47577
0.67 0 0 0 0 -0.492839
0.675 0 0 0 0 -0.507631
0.68 0 0 0 0 -0.520317
0.685 0 0 0 0 -0.531063
0.69 0 0 0 0 -0.540023
0.695 0 0 0 0 -0.547343
0.7 0 0 0 0 -0.55316
0.705 0 0 0 0 -0.557601
0.71 0 0 0 0 -0.560781
0.715 0 0 0 0 -0.562809
0.72 0 0 0 0 -0.563784
0.725 0 0 0 0 -0.563793
0.73 0 0 0 0 -0.562917
0.735 0 0 0 0 -0.561227
0.74 0 0 0 0 -0.558786
0.745 0 0 0 0 -0.55565
0.75 0 0 0 0 -0.551867
0.755 0 0 0 0 -0.547478
0.76 0 0 0 0 -0.542519
0.765 0 0 0 0 -0.537018
0.77 0 0 0 0 -0.531
0.775 0 0 0 0 -0.524486
0.78 0 0 0 0 -0.51749
0.785 0 0 0 0 -0.510028
0.79 0 0 0 0 -0.502107
0.795 0 0 0 0 -0.493738
0.8 0 0 0 0 -0.484925
0.805 0 0 0 0 -0.475674
0.81 0 0 0 0 -0.46599
0.815 0 0 0 0 -0.455877
0.82 0 0 0 0 -0.445338
0.825 0 0 0 0 -0.434379
0.83 0 0 0 0 -0.423004
0.835 0 0 0 0 -0.41122
0.84 0 0 0 0 -0.399034
0.845 0 0 0 0 -0.386456
0.85 0 0 0 0 -0.373495
0.855 0 0 0 0 -0.360165
0.86 0 0 0 0 -0.34648
0.865 0 0 0 0 -0.332457
0.87 0 0 0 0 -0.318116
0.875 0 0 0 0 -0.303479
0.88 0 0 0 0 -0.28857
0.885 0 0 0 0 -0.273418
0.89 0 0 0 0 -0.258054
0.895 0 0 0 0 -0.242513
0.9 0 0 0 0 -0.226834
0.905 0 0 0 0 -0.211059
0.91 0 0 0 0 -0.195235
0.915 0 0 0 0 -0.179416
0.92 0 0 0 0 -0.163659
0.925 0 0 0 0 -0.148027
0.93 0 0 0 0 -0.132591
0.935 0 0 0 0 -0.117428
0.94 0 0 0 0 -0.102622
0.945 0 0 0 0 -0.0882697
0.95 0 0 0 0 -0.0744736
0.955 0 0 0 0 -0.061349
0.96 0 0 0 0 -0.0490231
0.965 0 0 0 0 -0.0376358
0.97 0 0 0 0 -0.0273407
0.975 0 0 0 0 -0.0183049
0.98 0 0 0 0 -0.0107061
0.985 0 0 0 0 -0.00472591
0.99 0 0 0 0 -0.000531453
0.995 0 0 0 0 0.00176674
1 0 0 0 0 0.00221206
0 0.005 0 0 0 0
0.005 0.005 0 0 0 0
0.01 0.005 0 0 0 73.7257
0.015 0.005 0 0 0 62.0033
0.02 0.005 0 0 0 45.5699
0.025 0.005 0 0 0 33.7533
0.03 0.005 0 0 0 25.867
0.035 0.005 0 0 0 20.5074
0.04 0.005 0 0 0 16.7177
0.045 0.005 0 0 0 13.9292
0.05 0.005 0 0 0 11.8069
0.055 0.005 0 0 0 10.1479
0.06 0.005 0 0 0 8.82358
0.065 0.005 0 0 0 7.74912
0.07 0.005 0 0 0 6.86602
0.075 0.005 0 0 0 6.13263
0.08 0.005 0 0 0 5.51842
0.085 0.005 0 0 0 5.00043
0.09 0.005 0 0 0 4.56109
0.095 0.005 0 0 0 4.18667
0.1 0.005 0 0 0 3.86635
0.105 0.005 0 0 0 3.59144
0.11 0.005 0 0 0 3.35494
0.115 0.005 0 0 0 3.15114
0.12 0.005 0 0 0 2.97532
0.125 0.005 0 0 0 2.82359
0.13 0.005 0 0 0 2.69271
0.135 0.005 0 0 0 2.57996
0.14 0.005 0 0 0 2.48304
0.145 0.005 0 0 0 2.4
0.15 0.005 0 0 0 2.32919
0.155 0.005 0 0 0 2.26919
0.16 0.005 0 0 0 2.21879
0.165 0.005 0 0 0 2.17692
0.17 0.005 0 0 0 2.14269
0.175 0.005 0 0 0 2.11529
0.18 0.005 0 0 0 2.09403
0.185 0.005 0 0 0 2.07831
0.19 0.005 0 0 0 2.06759
0.195 0.005 0 0 0 2.06138
0.2 0.005 0 0 0 2.05928
0.205 0.005 0 0 0 2.0609
0.21 0.005 0 0 0 2.06591
0.215 0.005 0 0 0 2.074
0.22 0.005 0 0 0 2.08489
0.225 0.005 0 0 0 2.09833
0.23 0.005 0 0 0 2.11411
0.235 0.005 0 0 0 2.13199
0.24 0.005 0 0 0 2.15179
0.245 0.005 0 0 0 2.17333
0.25 0.005 0 0 0 2.19643
0.255 0.005 0 0 0 2.22094
0.26 0.005 0 0 0 2.2467
0.265 0.005 0 0 0 2.27358
0.27 0.005 0 0 0 2.30143
0.275 0.005 0 0 0 2.33012
0.28 0.005 0 0 0 2.35953
0.285 0.005 0 0 0 2.38954
0.29 0.005 0 0 0 2.42003
0.295 0.005 0 0 0 2.45087
0.3 0.005 0 0 0 2.48197
0.305 0.005 0 0 0 2.51321
0.31 0.005 0 0 0 2.54449
0.315 0.005 0 0 0 2.57569
0.32 0.005 0 0 0 2.60673
0.325 0.005 0 0 0 2.6375
0.33 0.005 0 0 0 2.66789
0.335 0.005 0 0 0 2.69782
0.34 0.005 0 0 0 2.72719
0.345 0.005 0 0 0 2.7559
0.35 0.005 0 0 0 2.78387
0.355 0.005 0 0 0 2.81102
0.36 0.005 0 0 0 2.83724
0.365 0.005 0 0 0 2.86247
0.37 0.005 0 0 0 2.88661
0.375 0.005 0 0 0 2.90959
0.38 0.005 0 0 0 2.93134
0.385 0.005 0 0 0 2.95178
0.39 0.005 0 0 0 2.97085
0.395 0.005 0 0 0 2.98847
0.4 0.005 0 0 0 3.00459
0.405 0.005 0 0 0 3.01914
0.41 0.005 0 0 0 3.03207
0.415 0.005 0 0 0 3.04333
0.42 0.005 0 0 0 3.05288
0.425 0.005 0 0 0 3.06066
0.43 0.005 0 0 0 3.06664
0.435 0.005 0 0 0 3.07079
0.44 0.005 0 0 0 3.07307
0.445 0.005 0 0 0 3.07346
0.45 0.005 0 0 0 3.07193
0.455 0.005 0 0 0 3.06848
0.46 0.005 0 0 0 3.0631
0.465 0.005 0 0 0 3.05576
0.47 0.005 0 0 0 3.04648
0.475 0.005 0 0 0 3.03525
0.48 0.005 0 0 0 3.02209
0.485 0.005 0 0 0 3.007
0.49 0.005 0 0 0 2.99001
0.495 0.005 0 0 0 2.97113
0.5 0.005 0 0 0 2.95039
0.505 0.005 0 0 0 2.92782
0.51 0.005 0 0 0 2.90346
0.515 0.005 0 0 0 2.87734
0.52 0.005 0 0 0 2.8495
0.525 0.005 0 0 0 2.82
0.53 0.005 0 0 0 2.78889
0.535 0.005 0 0 0 2.75621
0.54 0.005 0 0 0 2.72202
0.545 0.005 0 0 0 2.68638
0.55 0.005 0 0 0 2.64936
0.555 0.005 0 0 0 2.61101
0.56 0.005 0 0 0 2.57141
0.565 0.005 0 0 0 2.53062
0.57 0.005 0 0 0 2.48871
0.575 0.005 0 0 0 2.44576
0.58 0.005 0 0 0 2.40184
0.585 0.005 0 0 0 2.35702
0.59 0.005 0 0 0 2.31137
0.595 0.005 0 0 0 2.26497
0.6 0.005 0 0 0 2.2179
0.605 0.005 0 0 0 2.17023
0.61 0.005 0 0 0 2.12203
0.615 0.005 0 0 0 2.07338
0.62 0.005 0 0 0 2.02435
0.625 0.005 0 0 0 1.97501
0.63 0.005 0 0 0 1.92544
0.635 0.005 0 0 0 1.8757
0.64 0.005 0 0 0 1.82586
0.645 0.005 0 0 0 1.776
0.65 0.005 0 0 0 1.72616
0.655 0.005 0 0 0 1.67642
0.66 0.005 0 0 0 1.62684
0.665 0.005 0 0 0 1.57748
0.67 0.005 0 0 0 1.52838
0.675 0.005 0 0 0 1.47961
0.68 0.005 0 0 0 1.43122
0.685 0.005 0 0 0 1.38325
0.69 0.005 0 0 0 1.33575
0.695 0.005 0 0 0 1.28877
0.7 0.005 0 0 0 1.24235
0.705 0.005 0 0 0 1.19652
0.71 0.005 0 0 0 1.15133
0.715 0.005 0 0 0 1.10681
0.72 0.005 0 0 0 1.06298
0.725 0.005 0 0 0 1.01989
0.73 0.005 0 0 0 0.977544
0.735 0.005 0 0 0 0.935983
0.74 0.005 0 0 0 0.895225
0.745 0.005 0 0 0 0.855291
0.75 0.005 0 0 0 0.816198
0.755 0.005 0 0 0 0.777964
0.76 0.005 0 0 0 0.740602
0.765 0.005 0 0 0 0.704126
0.77 0.005 0 0 0 0.668547
0.775 0.005 0 0 0 0.633874
0.78 0.005 0 0 0 0.600116
0.785 0.005 0 0 0 0.567279
0.79 0.005 0 0 0 0.535368
0.795 0.005 0 0 0 0.504387
0.8 0.005 0 0 0 0.47434
0.805 0.005 0 0 0 0.445228
0.81 0.005 0 0 0 0.417053
0.815 0.005 0 0 0 0.389814
0.82 0.005 0 0 0 0.36351
0.825 0.005 0 0 0 0.338141
0.83 0.005 0 0 0 0.313705
0.835 0.005 0 0 0 0.290198
0.84 0.005 0 0 0 0.267618
0.845 0.005 0 0 0 0.245962
0.85 0.005 0 0 0 0.225225
0.855 0.005 0 0 0 0.205404
0.86 0.005 0 0 0 0.186494
0.865 0.005 0 0 0 0.168491
0.87 0.005 0 0 0 0.151391
0.875 0.005 0 0 0 0.135188
0.88 0.005 0 0 0 0.119878
0.885 0.005 0 0 0 0.105457
0.89 0.005 0 0 0 0.0919203
0.895 0.005 0 0 0 0.079263
0.9 0.005 0 0 0 0.067481
0.905 0.005 0 0 0 0.0565701
0.91 0.005 0 0 0 0.0465262
0.915 0.005 0 0 0 0.0373454
0.92 0.005 0 0 0 0.0290236
0.925 0.005 0 0 0 0.0215569
0.93 0.005 0 0 0 0.0149408
0.935 0.005 0 0 0 0.00917044
0.94 0.005 0 0 0 0.00424014
0.945 0.005 0 0 0 0.000142594
0.95 0.005 0 0 0 -0.00313175
0.955 0.005 0 0 0 -0.005596
0.96 0.005 0 0 0 -0.00726858
0.965 0.005 0 0 0 -0.00817592
0.97 0.005 0 0 0 -0.00835652
0.975 0.005 0 0 0 -0.00786717
0.98 0.005 0 0 0 -0.00679264
0.985 0.005 0 0 0 -0.00526103
0.99 0.005 0 0 0 -0.00346726
0.995 0.005 0 0 0 -0.00170563
1 0.005 0 0 0 -0.000395168
0 0.01 0 0 -0.000395168 0
0.005 0.01 0 0 0 -326.274
0.01 0.01 -0.179974 0.0775042 -0.000921571 -44.4601
0.015 0.01 -0.184564 -0.0351947 -0.000775042 9.4669
0.02 0.01 -0.155837 -0.0353125 -0.000569624 19.0735
0.025 0.01 -0.126897 -0.0246286 -0.000421917 18.9707
0.03 0.01 -0.103605 -0.0165574 -0.000323337 16.8382
0.035 0.01 -0.085701 -0.0114365 -0.000256342 14.558
0.04 0.01 -0.0719424 -0.00822276 -0.000208972 12.5597
0.045 0.01 -0.0612239 -0.00613856 -0.000174115 10.8935
0.05 0.01 -0.0527343 -0.00472666 -0.000147586 9.51843
0.055 0.01 -0.0459034 -0.00372914 -0.000126848 8.38091
0.06 0.01 -0.0403318 -0.00299841 -0.000110295 7.43404
0.065 0.01 -0.0357344 -0.00244694 -9.68639e-05 6.64034
0.07 0.01 -0.0319045 -0.0020206 -8.58251e-05 5.97066
0.075 0.01 -0.0286883 -0.00168449 -7.66578e-05 5.4023
0.08 0.01 -0.0259694 -0.00141523 -6.89801e-05 4.91747
0.085 0.01 -0.0236581 -0.00119665 -6.25053e-05 4.50212
0.09 0.01 -0.021684 -0.00101719 -5.70134e-05 4.14498
0.095 0.01 -0.0199915 -0.000868409 -5.23332e-05 3.83698
0.1 0.01 -0.0185358 -0.00074402 -4.83291e-05 3.57069
0.105 0.01 -0.0172807 -0.000639235 -4.48928e-05 3.34004
0.11 0.01 -0.0161964 -0.000550362 -4.19366e-05 3.13998
0.115 0.01 -0.0152587 -0.000474515 -3.9389e-05 2.96633
0.12 0.01 -0.0144471 -0.000409413 -3.71913e-05 2.81557
0.125 0.01 -0.0137447 -0.000353237 -3.52947e-05 2.68473
0.13 0.01 -0.0131374 -0.000304522 -3.36587e-05 2.5713
0.135 0.01 -0.012613 -0.000262077 -3.22493e-05 2.47316
0.14 0.01 -0.0121614 -0.000224932 -3.10378e-05 2.38849
0.145 0.01 -0.0117739 -0.00019229 -2.99998e-05 2.31571
0.15 0.01 -0.0114431 -0.000163491 -2.91147e-05 2.25348
0.155 0.01 -0.0111626 -0.000137987 -2.83647e-05 2.20064
0.16 0.01 -0.0109267 -0.00011532 -2.77347e-05 2.15617
0.165 0.01 -0.0107308 -9.51072e-05 -2.72114e-05 2.1192
0.17 0.01 -0.0105705 -7.70261e-05 -2.67835e-05 2.08896
0.175 0.01 -0.0104424 -6.0804e-05 -2.6441e-05 2.06476
0.18 0.01 -0.0103432 -4.62098e-05 -2.61753e-05 2.04601
0.185 0.01 -0.01027 -3.3047e-05 -2.59788e-05 2.03219
0.19 0.01 -0.0102203 -2.11484e-05 -2.58447e-05 2.02282
0.195 0.01 -0.010192 -1.03707e-05 -2.57672e-05 2.01748
0.2 0.01 -0.0101831 -5.91539e-07 -2.57409e-05 2.01582
0.205 0.01 -0.0101917 8.29417e-06 -2.57612e-05 2.01748
0.21 0.01 -0.0102163 1.63767e-05 -2.58238e-05 2.02216
0.215 0.01 -0.0102555 2.37337e-05 -2.59249e-05 2.0296
0.22 0.01 -0.0103079 3.0432e-05 -2.6061e-05 2.03954
0.225 0.01 -0.0103723 3.65291e-05 -2.62291e-05 2.05174
0.23 0.01 -0.0104476 4.20748e-05 -2.64263e-05 2.06601
0.235 0.01 -0.0105329 4.7112e-05 -2.66498e-05 2.08214
0.24 0.01 -0.0106272 5.16774e-05 -2.68974e-05 2.09996
0.245 0.01 -0.0107296 5.58031e-05 -2.71666e-05 2.11929
0.25 0.01 -0.0108393 5.95165e-05 -2.74554e-05 2.13998
0.255 0.01 -0.0109555 6.28415e-05 -2.77618e-05 2.16188
0.26 0.01 -0.0110775 6.57985e-05 -2.80838e-05 2.18485
0.265 0.01 -0.0112046 6.84053e-05 -2.84198e-05 2.20876
0.27 0.01 -0.0113362 7.06772e-05 -2.87679e-05 2.23347
0.275 0.01 -0.0114716 7.26277e-05 -2.91266e-05 2.25887
0.28 0.01 -0.0116102 7.42681e-05 -2.94942e-05 2.28483
0.285 0.01 -0.0117514 7.56088e-05 -2.98693e-05 2.31125
0.29 0.01 -0.0118947 7.66584e-05 -3.02504e-05 2.33802
0.295 0.01 -0.0120394 7.74251e-05 -3.0636e-05 2.36502
0.3 0.01 -0.0121852 7.79157e-05 -3.10247e-05 2.39216
0.305 0.01 -0.0123313 7.81366e-05 -3.14152e-05 2.41934
0.31 0.01 -0.0124775 7.80937e-05 -3.18062e-05 2.44645
0.315 0.01 -0.012623 7.77925e-05 -3.21963e-05 2.47341
0.32 0.01 -0.0127675 7.72381e-05 -3.25843e-05 2.50013
0.325 0.01 -0.0129105 7.64355e-05 -3.29688e-05 2.5265
0.33 0.01 -0.0130514 7.53897e-05 -3.33488e-05 2.55244
0.335 0.01 -0.01319 7.41055e-05 -3.37229e-05 2.57787
0.34 0.01 -0.0133256 7.2588e-05 -3.409e-05 2.60271
0.345 0.01 -0.0134579 7.08423e-05 -3.4449e-05 2.62687
0.35 0.01 -0.0135864 6.88737e-05 -3.47986e-05 2.65027
0.355 0.01 -0.0137108 6.66878e-05 -3.51379e-05 2.67284
0.36 0.01 -0.0138306 6.42903e-05 -3.54657e-05 2.6945
0.365 0.01 -0.0139455 6.16874e-05 -3.57811e-05 2.71518
0.37 0.01 -0.014055 5.88857e-05 -3.60829e-05 2.73482
0.375 0.01 -0.0141589 5.58919e-05 -3.63702e-05 2.75333
0.38 0.01 -0.0142567 5.27132e-05 -3.6642e-05 2.77068
0.385 0.01 -0.0143482 4.93572e-05 -3.68976e-05 2.78678
0.39 0.01 -0.0144329 4.58321e-05 -3.71359e-05 2.80159
0.395 0.01 -0.0145107 4.2146e-05 -3.73562e-05 2.81505
0.4 0.01 -0.0145812 3.83079e-05 -3.75576e-05 2.82711
0.405 0.01 -0.0146442 3.43268e-05 -3.77396e-05 2.83772
0.41 0.01 -0.0146994 3.02124e-05 -3.79012e-05 2.84685
0.415 0.01 -0.0147466 2.59745e-05 -3.8042e-05 2.85444
0.42 0.01 -0.0147856 2.16234e-05 -3.81613e-05 2.86046
0.425 0.01 -0.0148161 1.71697e-05 -3.82586e-05 2.86488
0.43 0.01 -0.0148381 1.26241e-05 -3.83334e-05 2.86768
0.435 0.01 -0.0148514 7.9978e-06 -3.83852e-05 2.86881
0.44 0.01 -0.0148558 3.30217e-06 -3.84137e-05 2.86828
0.445 0.01 -0.0148512 -1.45129e-06 -3.84186e-05 2.86605
0.45 0.01 -0.0148376 -6.25086e-06 -3.83996e-05 2.86212
0.455 0.01 -0.0148149 -1.10847e-05 -3.83564e-05 2.85648
0.46 0.01 -0.014783 -1.5941e-05 -3.82891e-05 2.84912
0.465 0.01 -0.014742 -2.08077e-05 -3.81974e-05 2.84004
0.47 0.01 -0.0146918 -2.5673e-05 -3.80814e-05 2.82924
0.475 0.01 -0.0146325 -3.05248e-05 -3.79411e-05 2.81674
0.48 0.01 -0.014564 -3.53515e-05 -3.77765e-05 2.80254
0.485 0.01 -0.0144866 -4.01414e-05 -3.7588e-05 2.78667
0.49 0.01 -0.0144003 -4.48829e-05 -3.73755e-05 2.76913
0.495 0.01 -0.0143051 -4.95647e-05 -3.71395e-05 2.74995
0.5 0.01 -0.0142012 -5.4176e-05 -3.68803e-05 2.72917
0.505 0.01 -0.0140888 -5.87059e-05 -3.65982e-05 2.7068
0.51 0.01 -0.0139681 -6.31442e-05 -3.62936e-05 2.68289
0.515 0.01 -0.0138392 -6.74808e-05 -3.59671e-05 2.65746
0.52 0.01 -0.0137023 -7.17062e-05 -3.56192e-05 2.63057
0.525 0.01 -0.0135577 -7.58113e-05 -3.52505e-05 2.60224
0.53 0.01 -0.0134056 -7.97876e-05 -3.48615e-05 2.57254
0.535 0.01 -0.0132462 -8.36268e-05 -3.4453e-05 2.5415
0.54 0.01 -0.0130799 -8.73215e-05 -3.40256e-05 2.50918
0.545 0.01 -0.0129068 -9.08647e-05 -3.35801e-05 2.47564
0.55 0.01 -0.0127274 -9.42501e-05 -3.31173e-05 2.44091
0.555 0.01 -0.0125418 -9.74718e-05 -3.2638e-05 2.40507
0.56 0.01 -0.0123505 -0.000100525 -3.2143e-05 2.36817
0.565 0.01 -0.0121537 -0.000103404 -3.16331e-05 2.33027
0.57 0.01 -0.0119517 -0.000106107 -3.11093e-05 2.29144
0.575 0.01 -0.011745 -0.000108629 -3.05724e-05 2.25173
0.58 0.01 -0.0115338 -0.000110968 -3.00233e-05 2.21121
0.585 0.01 -0.0113184 -0.000113122 -2.9463e-05 2.16993
0.59 0.01 -0.0110993 -0.000115089 -2.88924e-05 2.12798
0.595 0.01 -0.0108768 -0.00011687 -2.83125e-05 2.0854
0.6 0.01 -0.0106512 -0.000118464 -2.77241e-05 2.04227
0.605 0.01 -0.0104229 -0.000119871 -2.71281e-05 1.99865
0.61 0.01 -0.0101922 -0.000121092 -2.65256e-05 1.9546
0.615 0.01 -0.0099594 -0.00012213 -2.59175e-05 1.91018
0.62 0.01 -0.00972493 -0.000122986 -2.53046e-05 1.86546
0.625 0.01 -0.0094891 -0.000123663 -2.46879e-05 1.8205
0.63 0.01 -0.00925223 -0.000124164 -2.40682e-05 1.77536
0.635 0.01 -0.00901465 -0.000124493 -2.34465e-05 1.7301
0.64 0.01 -0.00877666 -0.000124654 -2.28235e-05 1.68477
0.645 0.01 -0.00853858 -0.000124651 -2.22002e-05 1.63944
0.65 0.01 -0.0083007 -0.000124488 -2.15773e-05 1.59416
0.655 0.01 -0.00806333 -0.000124172 -2.09555e-05 1.54897
0.66 0.01 -0.00782672 -0.000123706 -2.03357e-05 1.50395
0.665 0.01 -0.00759117 -0.000123098 -1.97186e-05 1.45912
0.67 0.01 -0.00735692 -0.000122352 -1.91049e-05 1.41454
0.675 0.01 -0.00712424 -0.000121474 -1.84953e-05 1.37026
0.68 0.01 -0.00689334 -0.00012047 -1.78904e-05 1.32633
0.685 0.01 -0.00666447 -0.000119347 -1.72908e-05 1.28277
0.69 0.01 -0.00643784 -0.000118111 -1.6697e-05 1.23964
0.695 0.01 -0.00621365 -0.000116768 -1.61098e-05 1.19696
0.7 0.01 -0.0059921 -0.000115324 -1.55295e-05 1.15479
0.705 0.01 -0.00577337 -0.000113785 -1.49567e-05 1.11314
0.71 0.01 -0.00555763 -0.000112158 -1.43918e-05 1.07205
0.715 0.01 -0.00534504 -0.000110449 -1.38352e-05 1.03155
0.72 0.01 -0.00513574 -0.000108663 -1.32874e-05 0.991673
0.725 0.01 -0.00492987 -0.000106807 -1.27487e-05 0.952438
0.73 0.01 -0.00472757 -0.000104887 -1.22194e-05 0.91387
0.735 0.01 -0.00452894 -0.000102907 -1.16999e-05 0.875991
0.74 0.01 -0.00433409 -0.000100873 -1.11904e-05 0.838821
0.745 0.01 -0.00414313 -9.87911e-05 -1.06912e-05 0.802378
0.75 0.01 -0.00395613 -9.66654e-05 -1.02025e-05 0.766679
0.755 0.01 -0.00377317 -9.45008e-05 -9.7246e-06 0.731738
0.76 0.01 -0.00359433 -9.23021e-05 -9.25757e-06 0.69757
0.765 0.01 -0.00341966 -9.00734e-05 -8.80162e-06 0.664185
0.77 0.01 -0.00324922 -8.78189e-05 -8.35688e-06 0.631594
0.775 0.01 -0.00308306 -8.55425e-05 -7.92346e-06 0.599806
0.78 0.01 -0.00292122 -8.32478e-05 -7.50148e-06 0.56883
0.785 0.01 -0.00276372 -8.09382e-05 -7.09101e-06 0.538671
0.79 0.01 -0.0026106 -7.86169e-05 -6.69212e-06 0.509335
0.795 0.01 -0.00246187 -7.62867e-05 -6.30486e-06 0.480827
0.8 0.01 -0.00231756 -7.39505e-05 -5.92927e-06 0.453151
0.805 0.01 -0.00217767 -7.16106e-05 -5.56536e-06 0.426308
0.81 0.01 -0.00204221 -6.92694e-05 -5.21317e-06 0.400301
0.815 0.01 -0.00191119 -6.69289e-05 -4.87268e-06 0.375131
0.82 0.01 -0.00178461 -6.45909e-05 -4.54388e-06 0.350799
0.825 0.01 -0.00166245 -6.22572e-05 -4.22677e-06 0.327304
0.83 0.01 -0.00154471 -5.99292e-05 -3.92131e-06 0.304645
0.835 0.01 -0.00143139 -5.76081e-05 -3.62747e-06 0.282822
0.84 0.01 -0.00132247 -5.52951e-05 -3.34522e-06 0.261832
0.845 0.01 -0.00121794 -5.29911e-05 -3.07452e-06 0.241675
0.85 0.01 -0.00111778 -5.06969e-05 -2.81531e-06 0.222346
0.855 0.01 -0.00102198 -4.84131e-05 -2.56754e-06 0.203844
0.86 0.01 -0.000930515 -4.61401e-05 -2.33117e-06 0.186166
0.865 0.01 -0.000843371 -4.38784e-05 -2.10613e-06 0.169309
0.87 0.01 -0.000760526 -4.16282e-05 -1.89237e-06 0.153269
0.875 0.01 -0.000681962 -3.93895e-05 -1.68984e-06 0.138044
0.88 0.01 -0.000607658 -3.71623e-05 -1.49847e-06 0.12363
0.885 0.01 -0.000537594 -3.49465e-05 -1.31821e-06 0.110023
0.89 0.01 -0.000471748 -3.27418e-05 -1.14899e-06 0.0972194
0.895 0.01 -0.000410102 -3.05482e-05 -9.90777e-07 0.0852161
0.9 0.01 -0.000352635 -2.83652e-05 -8.43502e-07 0.0740091
0.905 0.01 -0.000299326 -2.61925e-05 -7.07116e-07 0.0635944
0.91 0.01 -0.000250155 -2.40299e-05 -5.81569e-07 0.0539679
0.915 0.01 -0.000205102 -2.18773e-05 -4.66809e-07 0.0451253
0.92 0.01 -0.000164144 -1.97348e-05 -3.62788e-07 0.0370619
0.925 0.01 -0.000127259 -1.76028e-05 -2.69454e-07 0.0297722
0.93 0.01 -9.44194e-05 -1.54823e-05 -1.86753e-07 0.0232502
0.935 0.01 -6.55963e-05 -1.33751e-05 -1.14624e-07 0.0174884
0.94 0.01 -4.07531e-05 -1.12842e-05 -5.29963e-08 0.0124777
0.945 0.01 -1.98441e-05 -9.21432e-06 -1.77765e-09 0.00820687
0.95 0.01 -2.81021e-06 -7.17277e-06 3.9151e-08 0.00466105
0.955 0.01 1.04274e-05 -5.17062e-06 6.99534e-08 0.00182102
0.96 0.01 1.99753e-05 -3.22456e-06 9.086e-08 -0.000338842
0.965 0.01 2.59806e-05 -1.35966e-06 1.02201e-07 -0.0018529
0.97 0.01 2.86478e-05 3.86149e-07 1.04458e-07 -0.00276759
0.975 0.01 2.82642e-05 1.955e-06 9.83407e-08 -0.00314591
0.98 0.01 2.52356e-05 3.25779e-06 8.49087e-08 -0.00307306
0.985 0.01 2.01368e-05 4.15679e-06 6.57631e-08 -0.00266266
0.99 0.01 1.37789e-05 4.44427e-06 4.33408e-08 -0.00206039
0.995 0.01 7.28427e-06 3.84012e-06 2.13203e-08 -0.00143369
1 0.01 2.12802e-06 2.13203e-06 4.93955e-09 -0.000913698
0 0.015 0 0 -0.00170242 0
0.005 0.015 0 0 0 -256.021
0.01 0.015 -0.152683 0.184564 -0.00179974 -79.3334
0.015 0.015 -0.205779 -0.0241366 -0.00184564 -16.6637
0.02 0.015 -0.2039 -0.0576671 -0.00155837 2.37508
0.025 0.015 -0.183893 -0.0522328 -0.00126897 8.05124
0.03 0.015 -0.160693 -0.0411964 -0.00103605 9.41635
0.035 0.015 -0.139278 -0.0316622 -0.00085701 9.31577
0.04 0.015 -0.12087 -0.0244771 -0.000719424 8.72807
0.045 0.015 -0.105424 -0.0192081 -0.000612239 8.0113
0.05 0.015 -0.0925404 -0.0153205 -0.000527342 7.29923
0.055 0.015 -0.0817777 -0.0124025 -0.000459034 6.63984
0.06 0.015 -0.0727479 -0.010169 -0.000403317 6.04711
0.065 0.015 -0.0651325 -0.00842718 -0.000357344 5.52157
0.07 0.015 -0.0586767 -0.00704607 -0.000319045 5.0586
0.075 0.015 -0.0531776 -0.00593507 -0.000286883 4.65196
0.08 0.015 -0.0484732 -0.00503023 -0.000259694 4.29523
0.085 0.015 -0.0444336 -0.00428538 -0.00023658 3.9824
0.09 0.015 -0.0409537 -0.00366652 -0.000216839 3.70805
0.095 0.015 -0.0379478 -0.00314813 -0.000199914 3.46741
0.1 0.015 -0.0353458 -0.00271075 -0.000185357 3.25631
0.105 0.015 -0.0330895 -0.00233929 -0.000172806 3.07113
0.11 0.015 -0.0311308 -0.00202193 -0.000161964 2.90874
0.115 0.015 -0.0294292 -0.00174929 -0.000152586 2.76643
0.12 0.015 -0.0279511 -0.00151389 -0.00014447 2.64184
0.125 0.015 -0.0266676 -0.00130964 -0.000137446 2.53293
0.13 0.015 -0.0255546 -0.00113165 -0.000131373 2.43792
0.135 0.015 -0.0245914 -0.000975865 -0.000126129 2.35529
0.14 0.015 -0.0237602 -0.000838974 -0.000121614 2.28367
0.145 0.015 -0.0230458 -0.000718224 -0.000117739 2.22189
0.15 0.015 -0.0224352 -0.000611328 -0.000114431 2.16892
0.155 0.015 -0.021917 -0.00051637 -0.000111625 2.12386
0.16 0.015 -0.0214812 -0.000431745 -0.000109266 2.0859
0.165 0.015 -0.0211192 -0.000356097 -0.000107307 2.05434
0.17 0.015 -0.0208236 -0.000288281 -0.000105705 2.02856
0.175 0.015 -0.0205876 -0.000227323 -0.000104424 2.008
0.18 0.015 -0.0204055 -0.000172396 -0.000103431 1.99217
0.185 0.015 -0.0202721 -0.000122792 -0.000102699 1.98062
0.19 0.015 -0.0201827 -7.79069e-05 -0.000102203 1.97295
0.195 0.015 -0.0201332 -3.72209e-05 -0.00010192 1.96882
0.2 0.015 -0.0201201 -2.88467e-07 -0.00010183 1.9679
0.205 0.015 -0.0201398 3.32743e-05 -0.000101917 1.96989
0.21 0.015 -0.0201896 6.37981e-05 -0.000102163 1.97454
0.215 0.015 -0.0202666 9.15685e-05 -0.000102554 1.98159
0.22 0.015 -0.0203685 0.000116832 -0.000103078 1.99082
0.225 0.015 -0.0204928 0.000139802 -0.000103723 2.00203
0.23 0.015 -0.0206376 0.000160663 -0.000104476 2.01503
0.235 0.015 -0.020801 0.000179574 -0.000105329 2.02965
0.24 0.015 -0.0209811 0.000196674 -0.000106272 2.04571
0.245 0.015 -0.0211762 0.000212083 -0.000107296 2.06306
0.25 0.015 -0.0213849 0.000225904 -0.000108393 2.08157
0.255 0.015 -0.0216055 0.000238227 -0.000109555 2.10108
0.26 0.015 -0.0218369 0.000249131 -0.000110775 2.12148
0.265 0.015 -0.0220775 0.000258683 -0.000112046 2.14264
0.27 0.015 -0.0223261 0.000266944 -0.000113362 2.16443
0.275 0.015 -0.0225816 0.000273964 -0.000114716 2.18676
0.28 0.015 -0.0228427 0.000279789 -0.000116102 2.2095
0.285 0.015 -0.0231083 0.000284459 -0.000117514 2.23256
0.29 0.015 -0.0233774 0.00028801 -0.000118947 2.25583
0.295 0.015 -0.0236488 0.000290474 -0.000120395 2.27923
0.3 0.015 -0.0239216 0.000291879 -0.000121852 2.30264
0.305 0.015 -0.0241948 0.000292251 -0.000123314 2.32599
0.31 0.015 -0.0244673 0.000291614 -0.000124775 2.34919
0.315 0.015 -0.0247383 0.000289993 -0.00012623 2.37214
0.32 0.015 -0.0250067 0.000287408 -0.000127675 2.39477
0.325 0.015 -0.0252718 0.000283881 -0.000129105 2.417
0.33 0.015 -0.0255326 0.000279433 -0.000130515 2.43875
0.335 0.015 -0.0257882 0.000274085 -0.0001319 2.45994
0.34 0.015 -0.0260379 0.000267857 -0.000133257 2.4805
0.345 0.015 -0.0262808 0.000260773 -0.00013458 2.50035
0.35 0.015 -0.0265161 0.000252853 -0.000135865 2.51944
0.355 0.015 -0.0267431 0.000244121 -0.000137109 2.5377
0.36 0.015 -0.0269609 0.000234602 -0.000138307 2.55506
0.365 0.015 -0.027169 0.000224321 -0.000139456 2.57146
0.37 0.015 -0.0273665 0.000213303 -0.000140551 2.58684
0.375 0.015 -0.0275529 0.000201577 -0.00014159 2.60116
0.38 0.015 -0.0277275 0.000189172 -0.000142568 2.61435
0.385 0.015 -0.0278897 0.000176118 -0.000143483 2.62638
0.39 0.015 -0.0280389 0.000162447 -0.00014433 2.63719
0.395 0.015 -0.0281746 0.000148192 -0.000145108 2.64674
0.4 0.015 -0.0282963 0.000133387 -0.000145814 2.655
0.405 0.015 -0.0284034 0.000118068 -0.000146443 2.66191
0.41 0.015 -0.0284956 0.000102272 -0.000146995 2.66747
0.415 0.015 -0.0285724 8.60375e-05 -0.000147467 2.67162
0.42 0.015 -0.0286335 6.94035e-05 -0.000147857 2.67436
0.425 0.015 -0.0286786 5.24103e-05 -0.000148163 2.67564
0.43 0.015 -0.0287073 3.50992e-05 -0.000148383 2.67547
0.435 0.015 -0.0287194 1.75123e-05 -0.000148515 2.67381
0.44 0.015 -0.0287148 -3.07592e-07 -0.000148559 2.67066
0.445 0.015 -0.0286931 -1.83172e-05 -0.000148513 2.66601
0.45 0.015 -0.0286544 -3.64726e-05 -0.000148377 2.65985
0.455 0.015 -0.0285984 -5.47298e-05 -0.00014815 2.65218
0.46 0.015 -0.0285252 -7.30446e-05 -0.000147832 2.643
0.465 0.015 -0.0284348 -9.13725e-05 -0.000147421 2.63232
0.47 0.015 -0.0283272 -0.00010967 -0.000146919 2.62015
0.475 0.015 -0.0282024 -0.000127892 -0.000146326 2.60649
0.48 0.015 -0.0280606 -0.000145996 -0.000145642 2.59137
0.485 0.015 -0.0279019 -0.00016394 -0.000144868 2.5748
0.49 0.015 -0.0277266 -0.00018168 -0.000144004 2.5568
0.495 0.015 -0.0275348 -0.000199177 -0.000143052 2.5374
0.5 0.015 -0.0273269 -0.00021639 -0.000142014 2.51661
0.505 0.015 -0.027103 -0.000233281 -0.00014089 2.49449
0.51 0.015 -0.0268637 -0.000249811 -0.000139683 2.47105
0.515 0.015 -0.0266091 -0.000265945 -0.000138393 2.44632
0.52 0.015 -0.0263398 -0.000281649 -0.000137025 2.42036
0.525 0.015 -0.0260562 -0.00029689 -0.000135578 2.39319
0.53 0.015 -0.0257586 -0.000311637 -0.000134057 2.36487
0.535 0.015 -0.0254477 -0.000325862 -0.000132464 2.33542
0.54 0.015 -0.0251239 -0.000339537 -0.0001308 2.30491
0.545 0.015 -0.0247878 -0.000352638 -0.00012907 2.27337
0.55 0.015 -0.0244399 -0.000365143 -0.000127275 2.24086
0.555 0.015 -0.0240807 -0.000377031 -0.00012542 2.20742
0.56 0.015 -0.0237109 -0.000388284 -0.000123506 2.1731
0.565 0.015 -0.0233311 -0.000398887 -0.000121538 2.13796
0.57 0.015 -0.0229419 -0.000408826 -0.000119519 2.10206
0.575 0.015 -0.0225439 -0.000418089 -0.000117451 2.06543
0.58 0.015 -0.0221377 -0.00042667 -0.000115339 2.02815
0.585 0.015 -0.021724 -0.00043456 -0.000113186 1.99026
0.59 0.015 -0.0213035 -0.000441756 -0.000110995 1.95181
0.595 0.015 -0.0208767 -0.000448256 -0.000108769 1.91287
0.6 0.015 -0.0204443 -0.000454061 -0.000106513 1.87348
0.605 0.015 -0.0200071 -0.000459172 -0.00010423 1.8337
0.61 0.015 -0.0195655 -0.000463595 -0.000101923 1.79359
0.615 0.015 -0.0191202 -0.000467336 -9.95951e-05 1.75319
0.62 0.015 -0.018672 -0.000470403 -9.72504e-05 1.71256
0.625 0.015 -0.0182213 -0.000472806 -9.4892e-05 1.67175
0.63 0.015 -0.0177688 -0.000474558 -9.25233e-05 1.63081
0.635 0.015 -0.0173151 -0.000475672 -9.01474e-05 1.5898
0.64 0.015 -0.0168608 -0.000476162 -8.77675e-05 1.54875
0.645 0.015 -0.0164064 -0.000476046 -8.53867e-05 1.50772
0.65 0.015 -0.0159526 -0.00047534 -8.30079e-05 1.46675
0.655 0.015 -0.0154997 -0.000474063 -8.06341e-05 1.4259
0.66 0.015 -0.0150484 -0.000472235 -7.8268e-05 1.38519
0.665 0.015 -0.0145992 -0.000469876 -7.59124e-05 1.34467
0.67 0.015 -0.0141525 -0.000467008 -7.35699e-05 1.30439
0.675 0.015 -0.0137087 -0.000463651 -7.1243e-05 1.26438
0.68 0.015 -0.0132684 -0.000459829 -6.89341e-05 1.22467
0.685 0.015 -0.012832 -0.000455563 -6.66453e-05 1.18531
0.69 0.015 -0.0123998 -0.000450877 -6.4379e-05 1.14633
0.695 0.015 -0.0119722 -0.000445793 -6.21371e-05 1.10775
0.7 0.015 -0.0115497 -0.000440335 -5.99215e-05 1.06962
0.705 0.015 -0.0111324 -0.000434524 -5.77342e-05 1.03195
0.71 0.015 -0.0107208 -0.000428384 -5.55767e-05 0.994774
0.715 0.015 -0.0103151 -0.000421936 -5.34508e-05 0.958119
0.72 0.015 -0.00991568 -0.000415204 -5.13578e-05 0.922006
0.725 0.015 -0.00952269 -0.000408208 -4.92991e-05 0.886459
0.73 0.015 -0.0091364 -0.000400969 -4.7276e-05 0.851496
0.735 0.015 -0.00875704 -0.000393507 -4.52897e-05 0.817139
0.74 0.015 -0.0083848 -0.000385843 -4.33412e-05 0.783403
0.745 0.015 -0.00801987 -0.000377996 -4.14315e-05 0.750304
0.75 0.015 -0.0076624 -0.000369982 -3.95615e-05 0.717858
0.755 0.015 -0.00731255 -0.000361822 -3.77319e-05 0.686078
0.76 0.015 -0.00697045 -0.00035353 -3.59435e-05 0.654975
0.765 0.015 -0.00663621 -0.000345123 -3.41968e-05 0.624561
0.77 0.015 -0.00630994 -0.000336615 -3.24924e-05 0.594845
0.775 0.015 -0.00599174 -0.000328022 -3.08307e-05 0.565836
0.78 0.015 -0.00568166 -0.000319357 -2.92123e-05 0.537541
0.785 0.015 -0.0053798 -0.000310631 -2.76373e-05 0.509966
0.79 0.015 -0.00508619 -0.000301857 -2.6106e-05 0.483119
0.795 0.015 -0.00480088 -0.000293046 -2.46188e-05 0.457002
0.8 0.015 -0.0045239 -0.000284207 -2.31756e-05 0.43162
0.805 0.015 -0.00425529 -0.000275349 -2.17768e-05 0.406977
0.81 0.015 -0.00399506 -0.000266482 -2.04222e-05 0.383075
0.815 0.015 -0.00374321 -0.000257613 -1.9112e-05 0.359916
0.82 0.015 -0.00349976 -0.000248748 -1.78461e-05 0.337501