Title=" Lid Driven Flow"
VARIABLES="X","Y","U","V","psi","xi"
ZONE T= "BOX", I= 201, J=201, F=POINT
0 0 0 0 0.00165019 0
0.005 0 0 0 0 0
0.01 0 0 0 0 0
0.015 0 0 0 0 161.89
0.02 0 0 0 0 176.128
0.025 0 0 0 0 155.623
0.03 0 0 0 0 133.252
0.035 0 0 0 0 115.754
0.04 0 0 0 0 102.919
0.045 0 0 0 0 93.4011
0.05 0 0 0 0 86.087
0.055 0 0 0 0 80.2433
0.06 0 0 0 0 75.4112
0.065 0 0 0 0 71.3022
0.07 0 0 0 0 67.7292
0.075 0 0 0 0 64.5665
0.08 0 0 0 0 61.7266
0.085 0 0 0 0 59.147
0.09 0 0 0 0 56.7819
0.095 0 0 0 0 54.597
0.1 0 0 0 0 52.5661
0.105 0 0 0 0 50.669
0.11 0 0 0 0 48.8896
0.115 0 0 0 0 47.2153
0.12 0 0 0 0 45.6354
0.125 0 0 0 0 44.1413
0.13 0 0 0 0 42.7258
0.135 0 0 0 0 41.3826
0.14 0 0 0 0 40.1063
0.145 0 0 0 0 38.8921
0.15 0 0 0 0 37.7357
0.155 0 0 0 0 36.6334
0.16 0 0 0 0 35.5815
0.165 0 0 0 0 34.5769
0.17 0 0 0 0 33.6167
0.175 0 0 0 0 32.6979
0.18 0 0 0 0 31.818
0.185 0 0 0 0 30.9745
0.19 0 0 0 0 30.1652
0.195 0 0 0 0 29.3878
0.2 0 0 0 0 28.6404
0.205 0 0 0 0 27.9209
0.21 0 0 0 0 27.2275
0.215 0 0 0 0 26.5585
0.22 0 0 0 0 25.9122
0.225 0 0 0 0 25.2871
0.23 0 0 0 0 24.6816
0.235 0 0 0 0 24.0944
0.24 0 0 0 0 23.5241
0.245 0 0 0 0 22.9696
0.25 0 0 0 0 22.4296
0.255 0 0 0 0 21.9031
0.26 0 0 0 0 21.389
0.265 0 0 0 0 20.8863
0.27 0 0 0 0 20.3941
0.275 0 0 0 0 19.9117
0.28 0 0 0 0 19.4382
0.285 0 0 0 0 18.973
0.29 0 0 0 0 18.5152
0.295 0 0 0 0 18.0644
0.3 0 0 0 0 17.62
0.305 0 0 0 0 17.1815
0.31 0 0 0 0 16.7484
0.315 0 0 0 0 16.3203
0.32 0 0 0 0 15.8969
0.325 0 0 0 0 15.4778
0.33 0 0 0 0 15.0628
0.335 0 0 0 0 14.6516
0.34 0 0 0 0 14.244
0.345 0 0 0 0 13.84
0.35 0 0 0 0 13.4393
0.355 0 0 0 0 13.042
0.36 0 0 0 0 12.6479
0.365 0 0 0 0 12.257
0.37 0 0 0 0 11.8694
0.375 0 0 0 0 11.4851
0.38 0 0 0 0 11.1043
0.385 0 0 0 0 10.7269
0.39 0 0 0 0 10.3531
0.395 0 0 0 0 9.9831
0.4 0 0 0 0 9.61701
0.405 0 0 0 0 9.25503
0.41 0 0 0 0 8.89735
0.415 0 0 0 0 8.54419
0.42 0 0 0 0 8.19575
0.425 0 0 0 0 7.85228
0.43 0 0 0 0 7.514
0.435 0 0 0 0 7.18116
0.44 0 0 0 0 6.85399
0.445 0 0 0 0 6.53274
0.45 0 0 0 0 6.21765
0.455 0 0 0 0 5.90894
0.46 0 0 0 0 5.60684
0.465 0 0 0 0 5.31158
0.47 0 0 0 0 5.02335
0.475 0 0 0 0 4.74235
0.48 0 0 0 0 4.46877
0.485 0 0 0 0 4.20276
0.49 0 0 0 0 3.94447
0.495 0 0 0 0 3.69404
0.5 0 0 0 0 3.45158
0.505 0 0 0 0 3.21717
0.51 0 0 0 0 2.99089
0.515 0 0 0 0 2.77279
0.52 0 0 0 0 2.5629
0.525 0 0 0 0 2.36122
0.53 0 0 0 0 2.16774
0.535 0 0 0 0 1.98244
0.54 0 0 0 0 1.80525
0.545 0 0 0 0 1.6361
0.55 0 0 0 0 1.4749
0.555 0 0 0 0 1.32154
0.56 0 0 0 0 1.17589
0.565 0 0 0 0 1.03781
0.57 0 0 0 0 0.907148
0.575 0 0 0 0 0.783726
0.58 0 0 0 0 0.667366
0.585 0 0 0 0 0.557872
0.59 0 0 0 0 0.455042
0.595 0 0 0 0 0.358666
0.6 0 0 0 0 0.268527
0.605 0 0 0 0 0.184402
0.61 0 0 0 0 0.106064
0.615 0 0 0 0 0.033283
0.62 0 0 0 0 -0.0341717
0.625 0 0 0 0 -0.0965328
0.63 0 0 0 0 -0.154033
0.635 0 0 0 0 -0.206902
0.64 0 0 0 0 -0.255372
0.645 0 0 0 0 -0.299667
0.65 0 0 0 0 -0.340013
0.655 0 0 0 0 -0.376629
0.66 0 0 0 0 -0.409731
0.665 0 0 0 0 -0.439531
0.67 0 0 0 0 -0.466233
0.675 0 0 0 0 -0.490039
0.68 0 0 0 0 -0.511143
0.685 0 0 0 0 -0.529732
0.69 0 0 0 0 -0.545988
0.695 0 0 0 0 -0.560084
0.7 0 0 0 0 -0.572186
0.705 0 0 0 0 -0.582451
0.71 0 0 0 0 -0.591031
0.715 0 0 0 0 -0.598064
0.72 0 0 0 0 -0.603683
0.725 0 0 0 0 -0.608009
0.73 0 0 0 0 -0.611154
0.735 0 0 0 0 -0.613221
0.74 0 0 0 0 -0.614302
0.745 0 0 0 0 -0.614479
0.75 0 0 0 0 -0.613823
0.755 0 0 0 0 -0.612399
0.76 0 0 0 0 -0.610258
0.765 0 0 0 0 -0.607445
0.77 0 0 0 0 -0.603994
0.775 0 0 0 0 -0.599932
0.78 0 0 0 0 -0.595278
0.785 0 0 0 0 -0.590046
0.79 0 0 0 0 -0.584241
0.795 0 0 0 0 -0.577863
0.8 0 0 0 0 -0.570909
0.805 0 0 0 0 -0.563372
0.81 0 0 0 0 -0.555241
0.815 0 0 0 0 -0.546502
0.82 0 0 0 0 -0.537143
0.825 0 0 0 0 -0.527149
0.83 0 0 0 0 -0.516507
0.835 0 0 0 0 -0.505202
0.84 0 0 0 0 -0.493226
0.845 0 0 0 0 -0.480569
0.85 0 0 0 0 -0.467227
0.855 0 0 0 0 -0.453198
0.86 0 0 0 0 -0.438487
0.865 0 0 0 0 -0.423102
0.87 0 0 0 0 -0.407058
0.875 0 0 0 0 -0.390374
0.88 0 0 0 0 -0.373078
0.885 0 0 0 0 -0.355203
0.89 0 0 0 0 -0.33679
0.895 0 0 0 0 -0.317889
0.9 0 0 0 0 -0.298555
0.905 0 0 0 0 -0.278854
0.91 0 0 0 0 -0.25886
0.915 0 0 0 0 -0.238656
0.92 0 0 0 0 -0.218334
0.925 0 0 0 0 -0.197997
0.93 0 0 0 0 -0.177757
0.935 0 0 0 0 -0.157739
0.94 0 0 0 0 -0.138078
0.945 0 0 0 0 -0.118921
0.95 0 0 0 0 -0.100429
0.955 0 0 0 0 -0.0827793
0.96 0 0 0 0 -0.0661605
0.965 0 0 0 0 -0.0507794
0.97 0 0 0 0 -0.0368585
0.975 0 0 0 0 -0.0246358
0.98 0 0 0 0 -0.0143606
0.985 0 0 0 0 -0.00628385
0.99 0 0 0 0 -0.000632969
0.995 0 0 0 0 0.00244544
1 0 0 0 0 0.00301706
0 0.005 0 0 0 0
0.005 0.005 0 0 0 0
0.01 0.005 0 0 0 73.7261
0.015 0.005 0 0 0 62.0193
0.02 0.005 0 0 0 45.6076
0.025 0.005 0 0 0 33.8041
0.03 0.005 0 0 0 25.9158
0.035 0.005 0 0 0 20.5395
0.04 0.005 0 0 0 16.7223
0.045 0.005 0 0 0 13.8996
0.05 0.005 0 0 0 11.7403
0.055 0.005 0 0 0 10.0443
0.06 0.005 0 0 0 8.6851
0.065 0.005 0 0 0 7.57894
0.07 0.005 0 0 0 6.66807
0.075 0.005 0 0 0 5.91109
0.08 0.005 0 0 0 5.27745
0.085 0.005 0 0 0 4.74401
0.09 0.005 0 0 0 4.29287
0.095 0.005 0 0 0 3.90997
0.1 0.005 0 0 0 3.5841
0.105 0.005 0 0 0 3.30623
0.11 0.005 0 0 0 3.06899
0.115 0.005 0 0 0 2.86634
0.12 0.005 0 0 0 2.69331
0.125 0.005 0 0 0 2.54574
0.13 0.005 0 0 0 2.42018
0.135 0.005 0 0 0 2.31371
0.14 0.005 0 0 0 2.22388
0.145 0.005 0 0 0 2.14861
0.15 0.005 0 0 0 2.08614
0.155 0.005 0 0 0 2.03496
0.16 0.005 0 0 0 1.99377
0.165 0.005 0 0 0 1.96148
0.17 0.005 0 0 0 1.93712
0.175 0.005 0 0 0 1.91987
0.18 0.005 0 0 0 1.909
0.185 0.005 0 0 0 1.90389
0.19 0.005 0 0 0 1.904
0.195 0.005 0 0 0 1.90883
0.2 0.005 0 0 0 1.91798
0.205 0.005 0 0 0 1.93105
0.21 0.005 0 0 0 1.94771
0.215 0.005 0 0 0 1.96767
0.22 0.005 0 0 0 1.99065
0.225 0.005 0 0 0 2.01641
0.23 0.005 0 0 0 2.04472
0.235 0.005 0 0 0 2.07538
0.24 0.005 0 0 0 2.1082
0.245 0.005 0 0 0 2.14299
0.25 0.005 0 0 0 2.17959
0.255 0.005 0 0 0 2.21785
0.26 0.005 0 0 0 2.25762
0.265 0.005 0 0 0 2.29874
0.27 0.005 0 0 0 2.34109
0.275 0.005 0 0 0 2.38452
0.28 0.005 0 0 0 2.42891
0.285 0.005 0 0 0 2.47412
0.29 0.005 0 0 0 2.52004
0.295 0.005 0 0 0 2.56653
0.3 0.005 0 0 0 2.61348
0.305 0.005 0 0 0 2.66075
0.31 0.005 0 0 0 2.70823
0.315 0.005 0 0 0 2.7558
0.32 0.005 0 0 0 2.80333
0.325 0.005 0 0 0 2.85071
0.33 0.005 0 0 0 2.89782
0.335 0.005 0 0 0 2.94453
0.34 0.005 0 0 0 2.99074
0.345 0.005 0 0 0 3.03631
0.35 0.005 0 0 0 3.08114
0.355 0.005 0 0 0 3.12511
0.36 0.005 0 0 0 3.16809
0.365 0.005 0 0 0 3.20999
0.37 0.005 0 0 0 3.25069
0.375 0.005 0 0 0 3.29007
0.38 0.005 0 0 0 3.32803
0.385 0.005 0 0 0 3.36447
0.39 0.005 0 0 0 3.39928
0.395 0.005 0 0 0 3.43236
0.4 0.005 0 0 0 3.46361
0.405 0.005 0 0 0 3.49295
0.41 0.005 0 0 0 3.52028
0.415 0.005 0 0 0 3.54551
0.42 0.005 0 0 0 3.56857
0.425 0.005 0 0 0 3.58939
0.43 0.005 0 0 0 3.60788
0.435 0.005 0 0 0 3.62398
0.44 0.005 0 0 0 3.63763
0.445 0.005 0 0 0 3.64878
0.45 0.005 0 0 0 3.65738
0.455 0.005 0 0 0 3.66338
0.46 0.005 0 0 0 3.66675
0.465 0.005 0 0 0 3.66745
0.47 0.005 0 0 0 3.66547
0.475 0.005 0 0 0 3.66077
0.48 0.005 0 0 0 3.65337
0.485 0.005 0 0 0 3.64324
0.49 0.005 0 0 0 3.63039
0.495 0.005 0 0 0 3.61483
0.5 0.005 0 0 0 3.59658
0.505 0.005 0 0 0 3.57566
0.51 0.005 0 0 0 3.5521
0.515 0.005 0 0 0 3.52593
0.52 0.005 0 0 0 3.4972
0.525 0.005 0 0 0 3.46596
0.53 0.005 0 0 0 3.43227
0.535 0.005 0 0 0 3.39617
0.54 0.005 0 0 0 3.35775
0.545 0.005 0 0 0 3.31708
0.55 0.005 0 0 0 3.27422
0.555 0.005 0 0 0 3.22927
0.56 0.005 0 0 0 3.1823
0.565 0.005 0 0 0 3.13342
0.57 0.005 0 0 0 3.08272
0.575 0.005 0 0 0 3.03029
0.58 0.005 0 0 0 2.97624
0.585 0.005 0 0 0 2.92068
0.59 0.005 0 0 0 2.8637
0.595 0.005 0 0 0 2.80543
0.6 0.005 0 0 0 2.74596
0.605 0.005 0 0 0 2.68542
0.61 0.005 0 0 0 2.62391
0.615 0.005 0 0 0 2.56155
0.62 0.005 0 0 0 2.49845
0.625 0.005 0 0 0 2.43473
0.63 0.005 0 0 0 2.3705
0.635 0.005 0 0 0 2.30586
0.64 0.005 0 0 0 2.24093
0.645 0.005 0 0 0 2.17582
0.65 0.005 0 0 0 2.11063
0.655 0.005 0 0 0 2.04546
0.66 0.005 0 0 0 1.98042
0.665 0.005 0 0 0 1.9156
0.67 0.005 0 0 0 1.8511
0.675 0.005 0 0 0 1.78701
0.68 0.005 0 0 0 1.72341
0.685 0.005 0 0 0 1.66039
0.69 0.005 0 0 0 1.59803
0.695 0.005 0 0 0 1.5364
0.7 0.005 0 0 0 1.47558
0.705 0.005 0 0 0 1.41563
0.71 0.005 0 0 0 1.35661
0.715 0.005 0 0 0 1.29859
0.72 0.005 0 0 0 1.24161
0.725 0.005 0 0 0 1.18574
0.73 0.005 0 0 0 1.131
0.735 0.005 0 0 0 1.07745
0.74 0.005 0 0 0 1.02512
0.745 0.005 0 0 0 0.974046
0.75 0.005 0 0 0 0.924254
0.755 0.005 0 0 0 0.87577
0.76 0.005 0 0 0 0.828616
0.765 0.005 0 0 0 0.782809
0.77 0.005 0 0 0 0.738365
0.775 0.005 0 0 0 0.695293
0.78 0.005 0 0 0 0.653602
0.785 0.005 0 0 0 0.613296
0.79 0.005 0 0 0 0.574379
0.795 0.005 0 0 0 0.536849
0.8 0.005 0 0 0 0.500703
0.805 0.005 0 0 0 0.465937
0.81 0.005 0 0 0 0.432542
0.815 0.005 0 0 0 0.40051
0.82 0.005 0 0 0 0.369829
0.825 0.005 0 0 0 0.340487
0.83 0.005 0 0 0 0.31247
0.835 0.005 0 0 0 0.285763
0.84 0.005 0 0 0 0.260349
0.845 0.005 0 0 0 0.23621
0.85 0.005 0 0 0 0.213329
0.855 0.005 0 0 0 0.191686
0.86 0.005 0 0 0 0.171262
0.865 0.005 0 0 0 0.152038
0.87 0.005 0 0 0 0.133993
0.875 0.005 0 0 0 0.117106
0.88 0.005 0 0 0 0.101358
0.885 0.005 0 0 0 0.0867267
0.89 0.005 0 0 0 0.0731926
0.895 0.005 0 0 0 0.0607351
0.9 0.005 0 0 0 0.0493337
0.905 0.005 0 0 0 0.0389681
0.91 0.005 0 0 0 0.0296181
0.915 0.005 0 0 0 0.0212638
0.92 0.005 0 0 0 0.0138847
0.925 0.005 0 0 0 0.00746053
0.93 0.005 0 0 0 0.00197027
0.935 0.005 0 0 0 -0.00260791
0.94 0.005 0 0 0 -0.00629727
0.945 0.005 0 0 0 -0.00912324
0.95 0.005 0 0 0 -0.0111145
0.955 0.005 0 0 0 -0.0123043
0.96 0.005 0 0 0 -0.012733
0.965 0.005 0 0 0 -0.0124508
0.97 0.005 0 0 0 -0.0115221
0.975 0.005 0 0 0 -0.0100327
0.98 0.005 0 0 0 -0.00809907
0.985 0.005 0 0 0 -0.0058834
0.99 0.005 0 0 0 -0.00361448
0.995 0.005 0 0 0 -0.00161161
1 0.005 0 0 0 -0.000286177
0 0.01 0 0 -0.000286177 0
0.005 0.01 0 0 0 -326.274
0.01 0.01 -0.179991 0.0775242 -0.000921577 -44.4464
0.015 0.01 -0.184635 -0.0351482 -0.000775242 9.48238
0.02 0.01 -0.15597 -0.035269 -0.000570094 19.0844
0.025 0.01 -0.127057 -0.0246147 -0.000422552 18.9762
0.03 0.01 -0.103739 -0.0165807 -0.000323947 16.8359
0.035 0.01 -0.0857587 -0.0114918 -0.000256744 14.5435
0.04 0.01 -0.0718838 -0.00829993 -0.000209029 12.5284
0.045 0.01 -0.0610241 -0.00622752 -0.000173745 10.8418
0.05 0.01 -0.0523814 -0.0048191 -0.000146754 9.4439
0.055 0.01 -0.0453969 -0.00381902 -0.000125554 8.28282
0.06 0.01 -0.0396784 -0.00308171 -0.000108564 7.31282
0.065 0.01 -0.0349467 -0.00252127 -9.47367e-05 6.49736
0.07 0.01 -0.0309976 -0.0020848 -8.33508e-05 5.80792
0.075 0.01 -0.027679 -0.00173826 -7.38885e-05 5.2222
0.08 0.01 -0.0248749 -0.00145884 -6.5968e-05 4.7226
0.085 0.01 -0.0224948 -0.00123071 -5.92999e-05 4.29509
0.09 0.01 -0.0204677 -0.00104253 -5.36607e-05 3.92834
0.095 0.01 -0.0187365 -0.000885938 -4.88745e-05 3.61314
0.1 0.01 -0.0172549 -0.000754661 -4.48011e-05 3.34188
0.105 0.01 -0.0159854 -0.00064388 -4.13277e-05 3.10827
0.11 0.01 -0.0148969 -0.000549839 -3.83622e-05 2.90709
0.115 0.01 -0.0139636 -0.000469578 -3.58291e-05 2.73392
0.12 0.01 -0.013164 -0.000400733 -3.36662e-05 2.58505
0.125 0.01 -0.0124802 -0.000341398 -3.18216e-05 2.45735
0.13 0.01 -0.0118969 -0.000290028 -3.0252e-05 2.34815
0.135 0.01 -0.0114014 -0.000245361 -2.89212e-05 2.25517
0.14 0.01 -0.0109826 -0.000206356 -2.77983e-05 2.17647
0.145 0.01 -0.0106314 -0.000172157 -2.68574e-05 2.11037
0.15 0.01 -0.0103398 -0.00014205 -2.60766e-05 2.05543
0.155 0.01 -0.0101009 -0.00011544 -2.54368e-05 2.01042
0.16 0.01 -0.00990891 -9.18295e-05 -2.4922e-05 1.97424
0.165 0.01 -0.00975871 -7.08015e-05 -2.45184e-05 1.94598
0.17 0.01 -0.00964591 -5.20037e-05 -2.42139e-05 1.9248
0.175 0.01 -0.00956668 -3.51389e-05 -2.39982e-05 1.91
0.18 0.01 -0.00951768 -1.99556e-05 -2.38624e-05 1.90096
0.185 0.01 -0.009496 -6.24037e-06 -2.37986e-05 1.89712
0.19 0.01 -0.00949905 6.18789e-06 -2.37999e-05 1.89799
0.195 0.01 -0.00952458 1.74832e-05 -2.38603e-05 1.90316
0.2 0.01 -0.00957057 2.77768e-05 -2.39746e-05 1.91222
0.205 0.01 -0.00963524 3.71802e-05 -2.4138e-05 1.92485
0.21 0.01 -0.00971698 4.57884e-05 -2.43464e-05 1.94073
0.215 0.01 -0.00981435 5.36824e-05 -2.45958e-05 1.95958
0.22 0.01 -0.00992605 6.0931e-05 -2.48831e-05 1.98116
0.225 0.01 -0.0100509 6.75925e-05 -2.52051e-05 2.00523
0.23 0.01 -0.0101878 7.37165e-05 -2.5559e-05 2.03158
0.235 0.01 -0.0103358 7.93449e-05 -2.59422e-05 2.06002
0.24 0.01 -0.0104939 8.45132e-05 -2.63524e-05 2.09036
0.245 0.01 -0.0106613 8.9251e-05 -2.67873e-05 2.12243
0.25 0.01 -0.0108371 9.35833e-05 -2.72449e-05 2.15608
0.255 0.01 -0.0110206 9.75307e-05 -2.77232e-05 2.19115
0.26 0.01 -0.0112111 0.000101111 -2.82202e-05 2.2275
0.265 0.01 -0.0114078 0.000104337 -2.87343e-05 2.26499
0.27 0.01 -0.0116101 0.000107222 -2.92636e-05 2.30348
0.275 0.01 -0.0118172 0.000109774 -2.98065e-05 2.34285
0.28 0.01 -0.0120286 0.000112001 -3.03614e-05 2.38296
0.285 0.01 -0.0122437 0.00011391 -3.09266e-05 2.42371
0.29 0.01 -0.0124618 0.000115504 -3.15006e-05 2.46496
0.295 0.01 -0.0126823 0.000116788 -3.20817e-05 2.50659
0.3 0.01 -0.0129045 0.000117765 -3.26685e-05 2.5485
0.305 0.01 -0.013128 0.000118436 -3.32594e-05 2.59057
0.31 0.01 -0.0133522 0.000118803 -3.3853e-05 2.63267
0.315 0.01 -0.0135763 0.000118868 -3.44476e-05 2.67471
0.32 0.01 -0.0137999 0.000118633 -3.50418e-05 2.71656
0.325 0.01 -0.0140224 0.000118097 -3.56341e-05 2.75812
0.33 0.01 -0.0142433 0.000117264 -3.62229e-05 2.79928
0.335 0.01 -0.0144618 0.000116132 -3.68068e-05 2.83993
0.34 0.01 -0.0146776 0.000114706 -3.73844e-05 2.87997
0.345 0.01 -0.0148899 0.000112986 -3.79541e-05 2.91928
0.35 0.01 -0.0150984 0.000110974 -3.85144e-05 2.95777
0.355 0.01 -0.0153023 0.000108674 -3.9064e-05 2.99533
0.36 0.01 -0.0155013 0.000106088 -3.96014e-05 3.03187
0.365 0.01 -0.0156947 0.000103221 -4.01251e-05 3.06728
0.37 0.01 -0.015882 0.000100076 -4.06338e-05 3.10147
0.375 0.01 -0.0160628 9.66589e-05 -4.11261e-05 3.13434
0.38 0.01 -0.0162365 9.29752e-05 -4.16007e-05 3.1658
0.385 0.01 -0.0164027 8.90311e-05 -4.20561e-05 3.19577
0.39 0.01 -0.0165608 8.48335e-05 -4.24912e-05 3.22415
0.395 0.01 -0.0167104 8.03903e-05 -4.29048e-05 3.25087
0.4 0.01 -0.0168511 7.57099e-05 -4.32954e-05 3.27584
0.405 0.01 -0.0169824 7.08013e-05 -4.36622e-05 3.299
0.41 0.01 -0.017104 6.56745e-05 -4.40038e-05 3.32027
0.415 0.01 -0.0172155 6.034e-05 -4.43192e-05 3.33957
0.42 0.01 -0.0173164 5.48091e-05 -4.46075e-05 3.35685
0.425 0.01 -0.0174065 4.90936e-05 -4.48677e-05 3.37206
0.43 0.01 -0.0174855 4.32062e-05 -4.50988e-05 3.38512
0.435 0.01 -0.0175531 3.716e-05 -4.53001e-05 3.39601
0.44 0.01 -0.0176089 3.09689e-05 -4.54708e-05 3.40466
0.445 0.01 -0.0176528 2.4647e-05 -4.56102e-05 3.41104
0.45 0.01 -0.0176845 1.82094e-05 -4.57176e-05 3.41512
0.455 0.01 -0.017704 1.16712e-05 -4.57927e-05 3.41687
0.46 0.01 -0.0177109 5.04825e-06 -4.58348e-05 3.41626
0.465 0.01 -0.0177052 -1.64346e-06 -4.58436e-05 3.41328
0.47 0.01 -0.0176869 -8.38751e-06 -4.58187e-05 3.40792
0.475 0.01 -0.0176558 -1.51673e-05 -4.57601e-05 3.40016
0.48 0.01 -0.0176119 -2.19659e-05 -4.56675e-05 3.39001
0.485 0.01 -0.0175552 -2.87664e-05 -4.55409e-05 3.37747
0.49 0.01 -0.0174858 -3.55519e-05 -4.53803e-05 3.36255
0.495 0.01 -0.0174037 -4.23052e-05 -4.51858e-05 3.34527
0.5 0.01 -0.017309 -4.90094e-05 -4.49577e-05 3.32566
0.505 0.01 -0.0172018 -5.56477e-05 -4.46962e-05 3.30373
0.51 0.01 -0.0170823 -6.22036e-05 -4.44016e-05 3.27952
0.515 0.01 -0.0169507 -6.86606e-05 -4.40746e-05 3.25306
0.52 0.01 -0.0168072 -7.50027e-05 -4.37155e-05 3.22442
0.525 0.01 -0.0166521 -8.12144e-05 -4.3325e-05 3.19362
0.53 0.01 -0.0164855 -8.72805e-05 -4.29038e-05 3.16072
0.535 0.01 -0.0163079 -9.31865e-05 -4.24526e-05 3.12578
0.54 0.01 -0.0161194 -9.89183e-05 -4.19724e-05 3.08887
0.545 0.01 -0.0159206 -0.000104463 -4.14639e-05 3.05005
0.55 0.01 -0.0157117 -0.000109807 -4.09282e-05 3.00938
0.555 0.01 -0.0154931 -0.000114939 -4.03663e-05 2.96696
0.56 0.01 -0.0152653 -0.000119848 -3.97792e-05 2.92284
0.565 0.01 -0.0150287 -0.000124523 -3.91682e-05 2.87712
0.57 0.01 -0.0147837 -0.000128956 -3.85344e-05 2.82987
0.575 0.01 -0.0145308 -0.000133138 -3.78791e-05 2.78119
0.58 0.01 -0.0142705 -0.000137061 -3.72035e-05 2.73117
0.585 0.01 -0.0140032 -0.000140718 -3.65089e-05 2.67988
0.59 0.01 -0.0137295 -0.000144105 -3.57967e-05 2.62743
0.595 0.01 -0.0134499 -0.000147217 -3.50682e-05 2.57392
0.6 0.01 -0.0131649 -0.00015005 -3.43249e-05 2.51943
0.605 0.01 -0.0128749 -0.000152602 -3.35681e-05 2.46406
0.61 0.01 -0.0125806 -0.000154871 -3.27992e-05 2.4079
0.615 0.01 -0.0122825 -0.000156857 -3.20197e-05 2.35107
0.62 0.01 -0.0119811 -0.000158559 -3.1231e-05 2.29364
0.625 0.01 -0.0116768 -0.000159981 -3.04345e-05 2.23572
0.63 0.01 -0.0113703 -0.000161123 -2.96315e-05 2.1774
0.635 0.01 -0.011062 -0.000161989 -2.88236e-05 2.11877
0.64 0.01 -0.0107524 -0.000162583 -2.8012e-05 2.05993
0.645 0.01 -0.0104421 -0.000162911 -2.7198e-05 2.00098
0.65 0.01 -0.0101315 -0.000162977 -2.63831e-05 1.94198
0.655 0.01 -0.00982115 -0.000162789 -2.55685e-05 1.88305
0.66 0.01 -0.00951142 -0.000162353 -2.47555e-05 1.82425
0.665 0.01 -0.00920282 -0.000161677 -2.39453e-05 1.76567
0.67 0.01 -0.00889576 -0.00016077 -2.3139e-05 1.7074
0.675 0.01 -0.00859067 -0.000159639 -2.23378e-05 1.6495
0.68 0.01 -0.00828795 -0.000158296 -2.15428e-05 1.59205
0.685 0.01 -0.00798799 -0.000156748 -2.07551e-05 1.53513
0.69 0.01 -0.00769115 -0.000155007 -1.99755e-05 1.47879
0.695 0.01 -0.00739779 -0.000153083 -1.92052e-05 1.42311
0.7 0.01 -0.00710823 -0.000150985 -1.84449e-05 1.36814
0.705 0.01 -0.00682278 -0.000148725 -1.76955e-05 1.31395
0.71 0.01 -0.00654173 -0.000146314 -1.69578e-05 1.26057
0.715 0.01 -0.00626536 -0.000143762 -1.62325e-05 1.20807
0.72 0.01 -0.00599392 -0.00014108 -1.55203e-05 1.15649
0.725 0.01 -0.00572763 -0.000138279 -1.48218e-05 1.10588
0.73 0.01 -0.00546671 -0.000135369 -1.41376e-05 1.05627
0.735 0.01 -0.00521135 -0.000132362 -1.34683e-05 1.00769
0.74 0.01 -0.00496173 -0.000129267 -1.28141e-05 0.960193
0.745 0.01 -0.004718 -0.000126095 -1.21757e-05 0.913791
0.75 0.01 -0.0044803 -0.000122855 -1.15533e-05 0.868515
0.755 0.01 -0.00424874 -0.000119556 -1.09472e-05 0.824388
0.76 0.01 -0.00402343 -0.000116209 -1.03578e-05 0.781429
0.765 0.01 -0.00380446 -0.000112821 -9.78518e-06 0.739654
0.77 0.01 -0.00359189 -0.000109402 -9.22961e-06 0.699077
0.775 0.01 -0.00338578 -0.000105959 -8.69121e-06 0.659709
0.78 0.01 -0.00318617 -0.0001025 -8.17006e-06 0.621558
0.785 0.01 -0.00299308 -9.90327e-05 -7.66624e-06 0.584629
0.79 0.01 -0.00280653 -9.55631e-05 -7.17977e-06 0.548926
0.795 0.01 -0.00262652 -9.20978e-05 -6.71064e-06 0.514451
0.8 0.01 -0.00245304 -8.86428e-05 -6.25881e-06 0.481201
0.805 0.01 -0.00228606 -8.52036e-05 -5.82422e-06 0.449174
0.81 0.01 -0.00212556 -8.17852e-05 -5.40679e-06 0.418364
0.815 0.01 -0.0019715 -7.83923e-05 -5.00638e-06 0.388767
0.82 0.01 -0.00182383 -7.50289e-05 -4.62287e-06 0.360373
0.825 0.01 -0.00168249 -7.1699e-05 -4.25609e-06 0.333173
0.83 0.01 -0.00154743 -6.84058e-05 -3.90588e-06 0.307156
0.835 0.01 -0.00141857 -6.51523e-05 -3.57203e-06 0.282311
0.84 0.01 -0.00129584 -6.19411e-05 -3.25435e-06 0.258625
0.845 0.01 -0.00117916 -5.87744e-05 -2.95262e-06 0.236083
0.85 0.01 -0.00106845 -5.56542e-05 -2.6666e-06 0.214672
0.855 0.01 -0.000963628 -5.25819e-05 -2.39606e-06 0.194376
0.86 0.01 -0.000864602 -4.95588e-05 -2.14077e-06 0.175179
0.865 0.01 -0.000771282 -4.65857e-05 -1.90046e-06 0.157065
0.87 0.01 -0.000683575 -4.36635e-05 -1.6749e-06 0.140018
0.875 0.01 -0.000601389 -4.07925e-05 -1.46381e-06 0.124019
0.88 0.01 -0.000524628 -3.79729e-05 -1.26696e-06 0.109053
0.885 0.01 -0.000453198 -3.52048e-05 -1.08407e-06 0.0951017
0.89 0.01 -0.000387001 -3.24879e-05 -9.14893e-07 0.0821469
0.895 0.01 -0.000325944 -2.98222e-05 -7.59174e-07 0.0701712
0.9 0.01 -0.000269928 -2.72073e-05 -6.16656e-07 0.0591564
0.905 0.01 -0.00021886 -2.46429e-05 -4.87086e-07 0.0490845
0.91 0.01 -0.000172641 -2.21289e-05 -3.70213e-07 0.0399368
0.915 0.01 -0.000131175 -1.96654e-05 -2.65784e-07 0.0316946
0.92 0.01 -9.43627e-05 -1.72527e-05 -1.73546e-07 0.0243385
0.925 0.01 -6.2103e-05 -1.48918e-05 -9.3245e-08 0.0178482
0.93 0.01 -3.42909e-05 -1.25844e-05 -2.46176e-08 0.0122027
0.935 0.01 -1.08156e-05 -1.03334e-05 3.26087e-08 0.00737904
0.94 0.01 8.44213e-06 -8.14318e-06 7.87247e-08 0.00335253
0.945 0.01 2.36139e-05 -6.0206e-06 1.14048e-07 9.54051e-05
0.95 0.01 3.48486e-05 -3.97555e-06 1.38937e-07 -0.00242398
0.955 0.01 4.23193e-05 -2.02253e-06 1.5381e-07 -0.00424261
0.96 0.01 4.62333e-05 -1.82514e-07 1.59167e-07 -0.00540464
0.965 0.01 4.68451e-05 1.51408e-06 1.55638e-07 -0.00596393
0.97 0.01 4.44746e-05 3.02294e-06 1.44029e-07 -0.00598724
0.975 0.01 3.9533e-05 4.27911e-06 1.25411e-07 -0.00555833
0.98 0.01 3.25568e-05 5.18685e-06 1.0124e-07 -0.00478263
0.985 0.01 2.42533e-05 5.60586e-06 7.3543e-08 -0.00379133
0.99 0.01 1.55544e-05 5.33979e-06 4.51811e-08 -0.00274035
0.995 0.01 7.6602e-06 4.16039e-06 2.01451e-08 -0.00179123
1 0.01 2.01032e-06 2.01451e-06 3.57713e-09 -0.0010376
0 0.015 0 0 -0.00160826 0
0.005 0.015 0 0 0 -256.008
0.01 0.015 -0.152725 0.184635 -0.00179991 -79.3147
0.015 0.015 -0.205891 -0.0240211 -0.00184636 -16.6571
0.02 0.015 -0.204068 -0.0575785 -0.0015597 2.36072
0.025 0.015 -0.184062 -0.0522306 -0.00127057 8.02111
0.03 0.015 -0.160791 -0.0412983 -0.00103739 9.37612
0.035 0.015 -0.139233 -0.0318551 -0.000857587 9.26769
0.04 0.015 -0.120626 -0.0247347 -0.000718838 8.67173
0.045 0.015 -0.104945 -0.0195024 -0.000610241 7.94514
0.05 0.015 -0.0918079 -0.0156272 -0.000523814 7.22158
0.055 0.015 -0.0807903 -0.012703 -0.000453968 6.54943
0.06 0.015 -0.0715158 -0.0104502 -0.000396784 5.94334
0.065 0.015 -0.0636743 -0.00868081 -0.000349466 5.40445
0.07 0.015 -0.0570162 -0.00726757 -0.000309976 4.92872
0.075 0.015 -0.0513416 -0.00612269 -0.00027679 4.51032
0.08 0.015 -0.0464897 -0.00518416 -0.000248748 4.14313
0.085 0.015 -0.04233 -0.0044071 -0.000224948 3.82133
0.09 0.015 -0.0387562 -0.00375832 -0.000204676 3.5396
0.095 0.015 -0.0356811 -0.00321271 -0.000187364 3.29319
0.1 0.015 -0.0330322 -0.00275095 -0.000172549 3.0779
0.105 0.015 -0.0307493 -0.00235796 -0.000159854 2.89005
0.11 0.015 -0.028782 -0.00202177 -0.000148968 2.7264
0.115 0.015 -0.0270879 -0.00173281 -0.000139635 2.58415
0.12 0.015 -0.025631 -0.00148334 -0.00013164 2.46082
0.125 0.015 -0.024381 -0.00126705 -0.000124801 2.35427
0.13 0.015 -0.0233121 -0.00107877 -0.000118969 2.26262
0.135 0.015 -0.0224021 -0.000914231 -0.000114013 2.18421
0.14 0.015 -0.021632 -0.000769885 -0.000109826 2.11762
0.145 0.015 -0.0209856 -0.000642783 -0.000106314 2.06157
0.15 0.015 -0.0204488 -0.000530455 -0.000103397 2.01497
0.155 0.015 -0.0200096 -0.000430828 -0.000101009 1.97684
0.16 0.015 -0.0196573 -0.000342153 -9.90886e-05 1.94633
0.165 0.015 -0.0193829 -0.000262955 -9.75866e-05 1.92267
0.17 0.015 -0.0191784 -0.000191985 -9.64586e-05 1.90521
0.175 0.015 -0.0190367 -0.00012818 -9.56663e-05 1.89335
0.18 0.015 -0.0189519 -7.06372e-05 -9.51764e-05 1.88656
0.185 0.015 -0.0189184 -1.85886e-05 -9.49596e-05 1.88437
0.19 0.015 -0.0189315 2.86223e-05 -9.49902e-05 1.88638
0.195 0.015 -0.018987 7.15557e-05 -9.52455e-05 1.89219
0.2 0.015 -0.0190812 0.00011069 -9.57054e-05 1.90149
0.205 0.015 -0.0192106 0.000146435 -9.63521e-05 1.91395
0.21 0.015 -0.0193722 0.000179139 -9.71695e-05 1.9293
0.215 0.015 -0.0195634 0.000209102 -9.81433e-05 1.94729
0.22 0.015 -0.0197815 0.000236578 -9.92603e-05 1.96769
0.225 0.015 -0.0200244 0.000261784 -0.000100509 1.99029
0.23 0.015 -0.02029 0.000284906 -0.000101878 2.01489
0.235 0.015 -0.0205763 0.0003061 -0.000103358 2.04131
0.24 0.015 -0.0208815 0.000325501 -0.000104939 2.06937
0.245 0.015 -0.0212039 0.000343219 -0.000106613 2.09892
0.25 0.015 -0.0215421 0.000359351 -0.000108371 2.1298
0.255 0.015 -0.0218944 0.000373976 -0.000110206 2.16187
0.26 0.015 -0.0222594 0.00038716 -0.000112111 2.19499
0.265 0.015 -0.0226358 0.000398959 -0.000114078 2.22903
0.27 0.015 -0.0230222 0.000409419 -0.000116101 2.26385
0.275 0.015 -0.0234173 0.000418577 -0.000118172 2.29935
0.28 0.015 -0.0238199 0.000426464 -0.000120287 2.33539
0.285 0.015 -0.0242288 0.000433106 -0.000122437 2.37186
0.29 0.015 -0.0246427 0.000438523 -0.000124618 2.40865
0.295 0.015 -0.0250605 0.000442733 -0.000126823 2.44564
0.3 0.015 -0.025481 0.000445748 -0.000129046 2.48272
0.305 0.015 -0.0259031 0.000447581 -0.000131281 2.5198
0.31 0.015 -0.0263257 0.000448242 -0.000133522 2.55675
0.315 0.015 -0.0267475 0.000447738 -0.000135764 2.59349
0.32 0.015 -0.0271675 0.000446079 -0.000138 2.6299
0.325 0.015 -0.0275846 0.000443272 -0.000140225 2.66589
0.33 0.015 -0.0279977 0.000439326 -0.000142433 2.70135
0.335 0.015 -0.0284058 0.000434249 -0.000144619 2.7362
0.34 0.015 -0.0288076 0.00042805 -0.000146776 2.77033
0.345 0.015 -0.0292023 0.000420741 -0.0001489 2.80366
0.35 0.015 -0.0295888 0.000412333 -0.000150985 2.8361
0.355 0.015 -0.029966 0.000402841 -0.000153024 2.86754
0.36 0.015 -0.0303329 0.000392281 -0.000155014 2.89792
0.365 0.015 -0.0306885 0.000380669 -0.000156948 2.92714
0.37 0.015 -0.0310319 0.000368026 -0.000158821 2.95512
0.375 0.015 -0.0313622 0.000354374 -0.000160629 2.98179
0.38 0.015 -0.0316784 0.000339737 -0.000162366 3.00707
0.385 0.015 -0.0319796 0.000324143 -0.000164028 3.03088
0.39 0.015 -0.0322649 0.000307621 -0.000165609 3.05316
0.395 0.015 -0.0325336 0.000290202 -0.000167105 3.07385
0.4 0.015 -0.0327849 0.000271921 -0.000168512 3.09287
0.405 0.015 -0.0330179 0.000252816 -0.000169825 3.11017
0.41 0.015 -0.033232 0.000232925 -0.000171041 3.1257
0.415 0.015 -0.0334264 0.00021229 -0.000172156 3.13941
0.42 0.015 -0.0336006 0.000190956 -0.000173166 3.15124
0.425 0.015 -0.033754 0.000168969 -0.000174067 3.16116
0.43 0.015 -0.0338859 0.000146379 -0.000174857 3.16912
0.435 0.015 -0.0339959 0.000123235 -0.000175532 3.1751
0.44 0.015 -0.0340836 9.959e-05 -0.00017609 3.17906
0.445 0.015 -0.0341486 7.54995e-05 -0.000176529 3.18099
0.45 0.015 -0.0341904 5.10194e-05 -0.000176847 3.18085
0.455 0.015 -0.0342089 2.62074e-05 -0.000177041 3.17863
0.46 0.015 -0.0342037 1.12235e-06 -0.000177111 3.17433
0.465 0.015 -0.0341747 -2.41755e-05 -0.000177054 3.16793
0.47 0.015 -0.0341218 -4.96252e-05 -0.00017687 3.15944
0.475 0.015 -0.0340449 -7.5165e-05 -0.000176559 3.14886
0.48 0.015 -0.033944 -0.000100733 -0.00017612 3.1362
0.485 0.015 -0.0338191 -0.000126266 -0.000175554 3.12146
0.49 0.015 -0.0336703 -0.000151702 -0.00017486 3.10468
0.495 0.015 -0.0334979 -0.000176979 -0.000174038 3.08586
0.5 0.015 -0.0333019 -0.000202035 -0.000173091 3.06504
0.505 0.015 -0.0330828 -0.000226809 -0.00017202 3.04225
0.51 0.015 -0.0328407 -0.00025124 -0.000170825 3.01752
0.515 0.015 -0.0325761 -0.000275271 -0.000169509 2.99089
0.52 0.015 -0.0322895 -0.000298842 -0.000168074 2.9624
0.525 0.015 -0.0319812 -0.000321898 -0.000166522 2.93211
0.53 0.015 -0.0316519 -0.000344385 -0.000164857 2.90005
0.535 0.015 -0.0313021 -0.000366251 -0.00016308 2.8663
0.54 0.015 -0.0309325 -0.000387445 -0.000161196 2.8309
0.545 0.015 -0.0305437 -0.000407921 -0.000159208 2.79391
0.55 0.015 -0.0301363 -0.000427634 -0.000157119 2.75541
0.555 0.015 -0.0297113 -0.000446541 -0.000154933 2.71544
0.56 0.015 -0.0292693 -0.000464604 -0.000152655 2.67409
0.565 0.015 -0.0288111 -0.000481786 -0.000150288 2.63143
0.57 0.015 -0.0283376 -0.000498056 -0.000147839 2.58752
0.575 0.015 -0.0278497 -0.000513384 -0.00014531 2.54245
0.58 0.015 -0.0273483 -0.000527743 -0.000142706 2.49629
0.585 0.015 -0.0268342 -0.000541112 -0.000140034 2.44911
0.59 0.015 -0.0263085 -0.000553472 -0.000137297 2.401
0.595 0.015 -0.025772 -0.000564808 -0.0001345 2.35203
0.6 0.015 -0.0252257 -0.000575107 -0.00013165 2.30229
0.605 0.015 -0.0246706 -0.000584363 -0.000128751 2.25185
0.61 0.015 -0.0241076 -0.00059257 -0.000125808 2.2008
0.615 0.015 -0.0235378 -0.000599727 -0.000122826 2.14922
0.62 0.015 -0.022962 -0.000605839 -0.000119812 2.09719
0.625 0.015 -0.0223813 -0.000610909 -0.000116769 2.04479
0.63 0.015 -0.0217965 -0.000614948 -0.000113704 1.99209
0.635 0.015 -0.0212088 -0.000617969 -0.000110621 1.93917
0.64 0.015 -0.0206188 -0.000619986 -0.000107526 1.88612
0.645 0.015 -0.0200277 -0.000621019 -0.000104422 1.833
0.65 0.015 -0.0194362 -0.000621088 -0.000101316 1.77989
0.655 0.015 -0.0188454 -0.000620218 -9.82125e-05 1.72687
0.66 0.015 -0.0182559 -0.000618435 -9.51152e-05 1.67399
0.665 0.015 -0.0176686 -0.000615766 -9.20291e-05 1.62134
0.67 0.015 -0.0170844 -0.000612244 -8.89585e-05 1.56897
0.675 0.015 -0.016504 -0.000607899 -8.59076e-05 1.51695
0.68 0.015 -0.0159282 -0.000602767 -8.28804e-05 1.46535
0.685 0.015 -0.0153576 -0.000596882 -7.98807e-05 1.41421
0.69 0.015 -0.0147929 -0.000590282 -7.69123e-05 1.36359
0.695 0.015 -0.0142348 -0.000583003 -7.39786e-05 1.31355
0.7 0.015 -0.0136839 -0.000575084 -7.1083e-05 1.26414
0.705 0.015 -0.0131407 -0.000566564 -6.82284e-05 1.21541
0.71 0.015 -0.0126059 -0.000557482 -6.54179e-05 1.1674
0.715 0.015 -0.0120798 -0.000547878 -6.26542e-05 1.12015
0.72 0.015 -0.011563 -0.000537791 -5.99397e-05 1.07371
0.725 0.015 -0.0110559 -0.00052726 -5.72768e-05 1.0281
0.73 0.015 -0.0105589 -0.000516325 -5.46675e-05 0.983367
0.735 0.015 -0.0100723 -0.000505024 -5.21139e-05 0.939536
0.74 0.015 -0.00959643 -0.000493394 -4.96177e-05 0.896636
0.745 0.015 -0.00913166 -0.000481472 -4.71804e-05 0.854693
0.75 0.015 -0.0086782 -0.000469294 -4.48033e-05 0.813729
0.755 0.015 -0.00823628 -0.000456896 -4.24877e-05 0.773764
0.76 0.015 -0.00780609 -0.00044431 -4.02346e-05 0.734815
0.765 0.015 -0.00738779 -0.000431569 -3.80449e-05 0.696899
0.77 0.015 -0.00698153 -0.000418704 -3.59192e-05 0.660027
0.775 0.015 -0.0065874 -0.000405745 -3.3858e-05 0.62421
0.78 0.015 -0.00620549 -0.00039272 -3.18619e-05 0.589457
0.785 0.015 -0.00583584 -0.000379656 -2.9931e-05 0.555772
0.79 0.015 -0.00547851 -0.000366577 -2.80654e-05 0.523162
0.795 0.015 -0.00513348 -0.000353507 -2.62653e-05 0.491627
0.8 0.015 -0.00480075 -0.000340469 -2.45305e-05 0.46117
0.805 0.015 -0.00448029 -0.000327483 -2.28607e-05 0.431788
0.81 0.015 -0.00417204 -0.000314566 -2.12557e-05 0.403478
0.815 0.015 -0.00387594 -0.000301738 -1.97151e-05 0.376238
0.82 0.015 -0.00359191 -0.000289013 -1.82383e-05 0.350062
0.825 0.015 -0.00331986 -0.000276405 -1.6825e-05 0.324943