Title=" Lid Driven Flow"
VARIABLES="X","Y","U","V","psi","xi"
ZONE T= "BOX", I= 201, J=201, F=POINT
0 0 0 0 0.00252605 0
0.005 0 0 0 0 0
0.01 0 0 0 0 0
0.015 0 0 0 0 161.891
0.02 0 0 0 0 176.124
0.025 0 0 0 0 155.609
0.03 0 0 0 0 133.224
0.035 0 0 0 0 115.711
0.04 0 0 0 0 102.862
0.045 0 0 0 0 93.3337
0.05 0 0 0 0 86.0137
0.055 0 0 0 0 80.1693
0.06 0 0 0 0 75.3419
0.065 0 0 0 0 71.2428
0.07 0 0 0 0 67.6843
0.075 0 0 0 0 64.5405
0.08 0 0 0 0 61.7232
0.085 0 0 0 0 59.1694
0.09 0 0 0 0 56.8325
0.095 0 0 0 0 54.6778
0.1 0 0 0 0 52.6786
0.105 0 0 0 0 50.8141
0.11 0 0 0 0 49.068
0.115 0 0 0 0 47.427
0.12 0 0 0 0 45.8805
0.125 0 0 0 0 44.4194
0.13 0 0 0 0 43.0364
0.135 0 0 0 0 41.725
0.14 0 0 0 0 40.4796
0.145 0 0 0 0 39.2955
0.15 0 0 0 0 38.1682
0.155 0 0 0 0 37.094
0.16 0 0 0 0 36.0692
0.165 0 0 0 0 35.0908
0.17 0 0 0 0 34.1556
0.175 0 0 0 0 33.261
0.18 0 0 0 0 32.4043
0.185 0 0 0 0 31.5833
0.19 0 0 0 0 30.7956
0.195 0 0 0 0 30.0391
0.2 0 0 0 0 29.3118
0.205 0 0 0 0 28.6119
0.21 0 0 0 0 27.9375
0.215 0 0 0 0 27.287
0.22 0 0 0 0 26.6587
0.225 0 0 0 0 26.0512
0.23 0 0 0 0 25.463
0.235 0 0 0 0 24.8928
0.24 0 0 0 0 24.3394
0.245 0 0 0 0 23.8014
0.25 0 0 0 0 23.2778
0.255 0 0 0 0 22.7676
0.26 0 0 0 0 22.2696
0.265 0 0 0 0 21.783
0.27 0 0 0 0 21.3069
0.275 0 0 0 0 20.8405
0.28 0 0 0 0 20.383
0.285 0 0 0 0 19.9336
0.29 0 0 0 0 19.4918
0.295 0 0 0 0 19.0568
0.3 0 0 0 0 18.6282
0.305 0 0 0 0 18.2053
0.31 0 0 0 0 17.7878
0.315 0 0 0 0 17.3752
0.32 0 0 0 0 16.9671
0.325 0 0 0 0 16.5631
0.33 0 0 0 0 16.1629
0.335 0 0 0 0 15.7663
0.34 0 0 0 0 15.373
0.345 0 0 0 0 14.9827
0.35 0 0 0 0 14.5955
0.355 0 0 0 0 14.2109
0.36 0 0 0 0 13.8291
0.365 0 0 0 0 13.4499
0.37 0 0 0 0 13.0732
0.375 0 0 0 0 12.6991
0.38 0 0 0 0 12.3275
0.385 0 0 0 0 11.9585
0.39 0 0 0 0 11.5921
0.395 0 0 0 0 11.2284
0.4 0 0 0 0 10.8675
0.405 0 0 0 0 10.5095
0.41 0 0 0 0 10.1545
0.415 0 0 0 0 9.80275
0.42 0 0 0 0 9.45436
0.425 0 0 0 0 9.10952
0.43 0 0 0 0 8.76841
0.435 0 0 0 0 8.43124
0.44 0 0 0 0 8.09822
0.445 0 0 0 0 7.76957
0.45 0 0 0 0 7.44549
0.455 0 0 0 0 7.12623
0.46 0 0 0 0 6.812
0.465 0 0 0 0 6.50303
0.47 0 0 0 0 6.19954
0.475 0 0 0 0 5.90175
0.48 0 0 0 0 5.60988
0.485 0 0 0 0 5.32412
0.49 0 0 0 0 5.04469
0.495 0 0 0 0 4.77175
0.5 0 0 0 0 4.50549
0.505 0 0 0 0 4.24608
0.51 0 0 0 0 3.99366
0.515 0 0 0 0 3.74836
0.52 0 0 0 0 3.5103
0.525 0 0 0 0 3.27958
0.53 0 0 0 0 3.0563
0.535 0 0 0 0 2.8405
0.54 0 0 0 0 2.63225
0.545 0 0 0 0 2.43156
0.55 0 0 0 0 2.23846
0.555 0 0 0 0 2.05294
0.56 0 0 0 0 1.87496
0.565 0 0 0 0 1.70449
0.57 0 0 0 0 1.54147
0.575 0 0 0 0 1.38582
0.58 0 0 0 0 1.23745
0.585 0 0 0 0 1.09625
0.59 0 0 0 0 0.962107
0.595 0 0 0 0 0.834881
0.6 0 0 0 0 0.714427
0.605 0 0 0 0 0.600588
0.61 0 0 0 0 0.493197
0.615 0 0 0 0 0.392079
0.62 0 0 0 0 0.29705
0.625 0 0 0 0 0.20792
0.63 0 0 0 0 0.124495
0.635 0 0 0 0 0.0465736
0.64 0 0 0 0 -0.0260458
0.645 0 0 0 0 -0.0935693
0.65 0 0 0 0 -0.156204
0.655 0 0 0 0 -0.214158
0.66 0 0 0 0 -0.267639
0.665 0 0 0 0 -0.316854
0.67 0 0 0 0 -0.362011
0.675 0 0 0 0 -0.403313
0.68 0 0 0 0 -0.440964
0.685 0 0 0 0 -0.475165
0.69 0 0 0 0 -0.506112
0.695 0 0 0 0 -0.534001
0.7 0 0 0 0 -0.559022
0.705 0 0 0 0 -0.581362
0.71 0 0 0 0 -0.601204
0.715 0 0 0 0 -0.618726
0.72 0 0 0 0 -0.6341
0.725 0 0 0 0 -0.647491
0.73 0 0 0 0 -0.65906
0.735 0 0 0 0 -0.668957
0.74 0 0 0 0 -0.677325
0.745 0 0 0 0 -0.6843
0.75 0 0 0 0 -0.690004
0.755 0 0 0 0 -0.694551
0.76 0 0 0 0 -0.698042
0.765 0 0 0 0 -0.700568
0.77 0 0 0 0 -0.702205
0.775 0 0 0 0 -0.703016
0.78 0 0 0 0 -0.703053
0.785 0 0 0 0 -0.702353
0.79 0 0 0 0 -0.700941
0.795 0 0 0 0 -0.698828
0.8 0 0 0 0 -0.696013
0.805 0 0 0 0 -0.692486
0.81 0 0 0 0 -0.688222
0.815 0 0 0 0 -0.683191
0.82 0 0 0 0 -0.677354
0.825 0 0 0 0 -0.670662
0.83 0 0 0 0 -0.663066
0.835 0 0 0 0 -0.65451
0.84 0 0 0 0 -0.644938
0.845 0 0 0 0 -0.634293
0.85 0 0 0 0 -0.622521
0.855 0 0 0 0 -0.609572
0.86 0 0 0 0 -0.595402
0.865 0 0 0 0 -0.579972
0.87 0 0 0 0 -0.563257
0.875 0 0 0 0 -0.545239
0.88 0 0 0 0 -0.525915
0.885 0 0 0 0 -0.505297
0.89 0 0 0 0 -0.483411
0.895 0 0 0 0 -0.460301
0.9 0 0 0 0 -0.43603
0.905 0 0 0 0 -0.41068
0.91 0 0 0 0 -0.384354
0.915 0 0 0 0 -0.357174
0.92 0 0 0 0 -0.329288
0.925 0 0 0 0 -0.300862
0.93 0 0 0 0 -0.272088
0.935 0 0 0 0 -0.243181
0.94 0 0 0 0 -0.214379
0.945 0 0 0 0 -0.185944
0.95 0 0 0 0 -0.158164
0.955 0 0 0 0 -0.131352
0.96 0 0 0 0 -0.105845
0.965 0 0 0 0 -0.0820087
0.97 0 0 0 0 -0.0602326
0.975 0 0 0 0 -0.0409313
0.98 0 0 0 0 -0.0245371
0.985 0 0 0 0 -0.0114851
0.99 0 0 0 0 -0.00217682
0.995 0 0 0 0 0.00310615
1 0 0 0 0 0.00440296
0 0.005 0 0 0 0
0.005 0.005 0 0 0 0
0.01 0.005 0 0 0 73.7275
0.015 0.005 0 0 0 62.0495
0.02 0.005 0 0 0 45.6764
0.025 0.005 0 0 0 33.895
0.03 0.005 0 0 0 26.0004
0.035 0.005 0 0 0 20.5913
0.04 0.005 0 0 0 16.7216
0.045 0.005 0 0 0 13.835
0.05 0.005 0 0 0 11.6074
0.055 0.005 0 0 0 9.84392
0.06 0.005 0 0 0 8.4217
0.065 0.005 0 0 0 7.25919
0.07 0.005 0 0 0 6.29975
0.075 0.005 0 0 0 5.50235
0.08 0.005 0 0 0 4.83626
0.085 0.005 0 0 0 4.27786
0.09 0.005 0 0 0 3.80856
0.095 0.005 0 0 0 3.41353
0.1 0.005 0 0 0 3.08076
0.105 0.005 0 0 0 2.80045
0.11 0.005 0 0 0 2.56451
0.115 0.005 0 0 0 2.36628
0.12 0.005 0 0 0 2.2002
0.125 0.005 0 0 0 2.06164
0.13 0.005 0 0 0 1.94672
0.135 0.005 0 0 0 1.85218
0.14 0.005 0 0 0 1.7753
0.145 0.005 0 0 0 1.71375
0.15 0.005 0 0 0 1.66561
0.155 0.005 0 0 0 1.62921
0.16 0.005 0 0 0 1.60318
0.165 0.005 0 0 0 1.58633
0.17 0.005 0 0 0 1.57765
0.175 0.005 0 0 0 1.5763
0.18 0.005 0 0 0 1.58153
0.185 0.005 0 0 0 1.59274
0.19 0.005 0 0 0 1.60938
0.195 0.005 0 0 0 1.631
0.2 0.005 0 0 0 1.6572
0.205 0.005 0 0 0 1.68763
0.21 0.005 0 0 0 1.722
0.215 0.005 0 0 0 1.76003
0.22 0.005 0 0 0 1.8015
0.225 0.005 0 0 0 1.8462
0.23 0.005 0 0 0 1.89393
0.235 0.005 0 0 0 1.94452
0.24 0.005 0 0 0 1.99782
0.245 0.005 0 0 0 2.05367
0.25 0.005 0 0 0 2.11194
0.255 0.005 0 0 0 2.17249
0.26 0.005 0 0 0 2.23519
0.265 0.005 0 0 0 2.29992
0.27 0.005 0 0 0 2.36655
0.275 0.005 0 0 0 2.43495
0.28 0.005 0 0 0 2.50502
0.285 0.005 0 0 0 2.57661
0.29 0.005 0 0 0 2.6496
0.295 0.005 0 0 0 2.72388
0.3 0.005 0 0 0 2.7993
0.305 0.005 0 0 0 2.87574
0.31 0.005 0 0 0 2.95306
0.315 0.005 0 0 0 3.03113
0.32 0.005 0 0 0 3.1098
0.325 0.005 0 0 0 3.18894
0.33 0.005 0 0 0 3.26839
0.335 0.005 0 0 0 3.34801
0.34 0.005 0 0 0 3.42765
0.345 0.005 0 0 0 3.50715
0.35 0.005 0 0 0 3.58636
0.355 0.005 0 0 0 3.66511
0.36 0.005 0 0 0 3.74326
0.365 0.005 0 0 0 3.82063
0.37 0.005 0 0 0 3.89705
0.375 0.005 0 0 0 3.97238
0.38 0.005 0 0 0 4.04644
0.385 0.005 0 0 0 4.11906
0.39 0.005 0 0 0 4.19008
0.395 0.005 0 0 0 4.25934
0.4 0.005 0 0 0 4.32667
0.405 0.005 0 0 0 4.39191
0.41 0.005 0 0 0 4.4549
0.415 0.005 0 0 0 4.51547
0.42 0.005 0 0 0 4.57348
0.425 0.005 0 0 0 4.62877
0.43 0.005 0 0 0 4.68119
0.435 0.005 0 0 0 4.7306
0.44 0.005 0 0 0 4.77685
0.445 0.005 0 0 0 4.81982
0.45 0.005 0 0 0 4.85938
0.455 0.005 0 0 0 4.89539
0.46 0.005 0 0 0 4.92775
0.465 0.005 0 0 0 4.95635
0.47 0.005 0 0 0 4.98108
0.475 0.005 0 0 0 5.00186
0.48 0.005 0 0 0 5.01858
0.485 0.005 0 0 0 5.03119
0.49 0.005 0 0 0 5.03961
0.495 0.005 0 0 0 5.04378
0.5 0.005 0 0 0 5.04366
0.505 0.005 0 0 0 5.0392
0.51 0.005 0 0 0 5.03038
0.515 0.005 0 0 0 5.01718
0.52 0.005 0 0 0 4.99959
0.525 0.005 0 0 0 4.97762
0.53 0.005 0 0 0 4.95128
0.535 0.005 0 0 0 4.92061
0.54 0.005 0 0 0 4.88562
0.545 0.005 0 0 0 4.84638
0.55 0.005 0 0 0 4.80295
0.555 0.005 0 0 0 4.75538
0.56 0.005 0 0 0 4.70378
0.565 0.005 0 0 0 4.64822
0.57 0.005 0 0 0 4.5888
0.575 0.005 0 0 0 4.52565
0.58 0.005 0 0 0 4.45889
0.585 0.005 0 0 0 4.38864
0.59 0.005 0 0 0 4.31504
0.595 0.005 0 0 0 4.23826
0.6 0.005 0 0 0 4.15844
0.605 0.005 0 0 0 4.07574
0.61 0.005 0 0 0 3.99036
0.615 0.005 0 0 0 3.90245
0.62 0.005 0 0 0 3.81221
0.625 0.005 0 0 0 3.71983
0.63 0.005 0 0 0 3.62551
0.635 0.005 0 0 0 3.52943
0.64 0.005 0 0 0 3.43181
0.645 0.005 0 0 0 3.33284
0.65 0.005 0 0 0 3.23274
0.655 0.005 0 0 0 3.1317
0.66 0.005 0 0 0 3.02994
0.665 0.005 0 0 0 2.92766
0.67 0.005 0 0 0 2.82506
0.675 0.005 0 0 0 2.72236
0.68 0.005 0 0 0 2.61974
0.685 0.005 0 0 0 2.5174
0.69 0.005 0 0 0 2.41553
0.695 0.005 0 0 0 2.31432
0.7 0.005 0 0 0 2.21396
0.705 0.005 0 0 0 2.11461
0.71 0.005 0 0 0 2.01644
0.715 0.005 0 0 0 1.91961
0.72 0.005 0 0 0 1.82428
0.725 0.005 0 0 0 1.7306
0.73 0.005 0 0 0 1.63869
0.735 0.005 0 0 0 1.54869
0.74 0.005 0 0 0 1.46072
0.745 0.005 0 0 0 1.37488
0.75 0.005 0 0 0 1.29128
0.755 0.005 0 0 0 1.21001
0.76 0.005 0 0 0 1.13115
0.765 0.005 0 0 0 1.05477
0.77 0.005 0 0 0 0.980934
0.775 0.005 0 0 0 0.9097
0.78 0.005 0 0 0 0.84111
0.785 0.005 0 0 0 0.7752
0.79 0.005 0 0 0 0.711997
0.795 0.005 0 0 0 0.651518
0.8 0.005 0 0 0 0.593775
0.805 0.005 0 0 0 0.538769
0.81 0.005 0 0 0 0.486495
0.815 0.005 0 0 0 0.436941
0.82 0.005 0 0 0 0.390087
0.825 0.005 0 0 0 0.345908
0.83 0.005 0 0 0 0.304372
0.835 0.005 0 0 0 0.265443
0.84 0.005 0 0 0 0.229077
0.845 0.005 0 0 0 0.195229
0.85 0.005 0 0 0 0.163847
0.855 0.005 0 0 0 0.134876
0.86 0.005 0 0 0 0.108259
0.865 0.005 0 0 0 0.0839325
0.87 0.005 0 0 0 0.0618345
0.875 0.005 0 0 0 0.0418984
0.88 0.005 0 0 0 0.0240561
0.885 0.005 0 0 0 0.00823791
0.89 0.005 0 0 0 -0.00562722
0.895 0.005 0 0 0 -0.0176116
0.9 0.005 0 0 0 -0.0277888
0.905 0.005 0 0 0 -0.0362332
0.91 0.005 0 0 0 -0.0430205
0.915 0.005 0 0 0 -0.0482277
0.92 0.005 0 0 0 -0.0519331
0.925 0.005 0 0 0 -0.0542174
0.93 0.005 0 0 0 -0.0551638
0.935 0.005 0 0 0 -0.0548594
0.94 0.005 0 0 0 -0.0533959
0.945 0.005 0 0 0 -0.0508719
0.95 0.005 0 0 0 -0.0473949
0.955 0.005 0 0 0 -0.043084
0.96 0.005 0 0 0 -0.0380742
0.965 0.005 0 0 0 -0.0325216
0.97 0.005 0 0 0 -0.0266099
0.975 0.005 0 0 0 -0.0205599
0.98 0.005 0 0 0 -0.014641
0.985 0.005 0 0 0 -0.0091844
0.99 0.005 0 0 0 -0.00459423
0.995 0.005 0 0 0 -0.00133454
1 0.005 0 0 0 0.000176474
0 0.01 0 0 0.000176474 0
0.005 0.01 0 0 0 -326.273
0.01 0.01 -0.180022 0.0775618 -0.000921593 -44.4213
0.015 0.01 -0.184766 -0.0350638 -0.000775618 9.50952
0.02 0.01 -0.156208 -0.0351931 -0.000570956 19.1024
0.025 0.01 -0.127338 -0.024595 -0.000423688 18.9835
0.03 0.01 -0.103964 -0.0166297 -0.000325005 16.8279
0.035 0.01 -0.0858349 -0.0115986 -0.000257391 14.5124
0.04 0.01 -0.0717403 -0.00844539 -0.00020902 12.466
0.045 0.01 -0.0606174 -0.00639277 -0.000172937 10.7415
0.05 0.01 -0.0516934 -0.00498881 -0.000145092 9.30205
0.055 0.01 -0.044429 -0.0039821 -0.000123049 8.0983
0.06 0.01 -0.0384467 -0.0032309 -0.000105271 7.08682
0.065 0.01 -0.0334761 -0.00265243 -9.07399e-05 6.23279
0.07 0.01 -0.0293188 -0.00219605 -7.87468e-05 5.50879
0.075 0.01 -0.0258246 -0.00182936 -6.87792e-05 4.89317
0.08 0.01 -0.0228776 -0.0015306 -6.04532e-05 4.36861
0.085 0.01 -0.0203859 -0.00128461 -5.34731e-05 3.92106
0.09 0.01 -0.0182761 -0.0010804 -4.76069e-05 3.539
0.095 0.01 -0.0164881 -0.000909739 -4.2669e-05 3.21286
0.1 0.01 -0.014973 -0.000766347 -3.85094e-05 2.93465
0.105 0.01 -0.0136898 -0.000645302 -3.50055e-05 2.69765
0.11 0.01 -0.0126046 -0.000542693 -3.20563e-05 2.49618
0.115 0.01 -0.011689 -0.000455374 -2.95784e-05 2.32542
0.12 0.01 -0.0109193 -0.000380789 -2.75024e-05 2.18126
0.125 0.01 -0.0102751 -0.000316844 -2.57704e-05 2.06023
0.13 0.01 -0.00973968 -0.000261814 -2.43339e-05 1.95935
0.135 0.01 -0.00929854 -0.000214271 -2.31522e-05 1.87606
0.14 0.01 -0.00893954 -0.00017303 -2.21911e-05 1.8082
0.145 0.01 -0.00865235 -0.000137103 -2.14218e-05 1.75389
0.15 0.01 -0.00842817 -0.000105664 -2.082e-05 1.71155
0.155 0.01 -0.00825954 -7.80219e-05 -2.03651e-05 1.67979
0.16 0.01 -0.00814008 -5.35974e-05 -2.00397e-05 1.65744
0.165 0.01 -0.00806433 -3.1904e-05 -1.9829e-05 1.6435
0.17 0.01 -0.00802766 -1.25328e-05 -1.97206e-05 1.63708
0.175 0.01 -0.00802607 4.85991e-06 -1.97036e-05 1.63743
0.18 0.01 -0.00805615 2.05631e-05 -1.97691e-05 1.64391
0.185 0.01 -0.00811494 3.482e-05 -1.99092e-05 1.65596
0.19 0.01 -0.00819991 4.78345e-05 -2.01172e-05 1.67307
0.195 0.01 -0.00830885 5.97783e-05 -2.03875e-05 1.69483
0.2 0.01 -0.00843986 7.07948e-05 -2.07149e-05 1.72087
0.205 0.01 -0.00859126 8.10042e-05 -2.10954e-05 1.75084
0.21 0.01 -0.00876159 9.05067e-05 -2.15249e-05 1.78447
0.215 0.01 -0.00894954 9.93854e-05 -2.20004e-05 1.8215
0.22 0.01 -0.00915395 0.000107709 -2.25187e-05 1.86169
0.225 0.01 -0.00937378 0.000115535 -2.30774e-05 1.90484
0.23 0.01 -0.00960809 0.000122909 -2.3674e-05 1.95074
0.235 0.01 -0.00985601 0.000129868 -2.43065e-05 1.99924
0.24 0.01 -0.0101167 0.000136442 -2.49727e-05 2.05016
0.245 0.01 -0.0103895 0.000142656 -2.56709e-05 2.10334
0.25 0.01 -0.0106736 0.000148526 -2.63992e-05 2.15866
0.255 0.01 -0.0109684 0.000154067 -2.71561e-05 2.21595
0.26 0.01 -0.0112732 0.000159289 -2.79399e-05 2.27509
0.265 0.01 -0.0115873 0.000164197 -2.8749e-05 2.33595
0.27 0.01 -0.0119102 0.000168795 -2.95818e-05 2.3984
0.275 0.01 -0.0122411 0.000173084 -3.04369e-05 2.46231
0.28 0.01 -0.0125795 0.000177064 -3.13127e-05 2.52755
0.285 0.01 -0.0129248 0.000180733 -3.22076e-05 2.594
0.29 0.01 -0.0132762 0.000184086 -3.312e-05 2.66152
0.295 0.01 -0.0136332 0.000187118 -3.40485e-05 2.73
0.3 0.01 -0.0139952 0.000189824 -3.49912e-05 2.79929
0.305 0.01 -0.0143614 0.000192199 -3.59467e-05 2.86927
0.31 0.01 -0.0147312 0.000194233 -3.69133e-05 2.93981
0.315 0.01 -0.015104 0.000195922 -3.78891e-05 3.01077
0.32 0.01 -0.015479 0.000197257 -3.88726e-05 3.08202
0.325 0.01 -0.0158555 0.000198231 -3.98618e-05 3.15342
0.33 0.01 -0.0162328 0.000198837 -4.08549e-05 3.22483
0.335 0.01 -0.0166103 0.000199068 -4.18502e-05 3.29611
0.34 0.01 -0.0169871 0.000198917 -4.28457e-05 3.36711
0.345 0.01 -0.0173625 0.000198378 -4.38395e-05 3.43771
0.35 0.01 -0.0177358 0.000197446 -4.48296e-05 3.50774
0.355 0.01 -0.0181062 0.000196114 -4.5814e-05 3.57707
0.36 0.01 -0.018473 0.000194378 -4.67908e-05 3.64555
0.365 0.01 -0.0188353 0.000192235 -4.77579e-05 3.71303
0.37 0.01 -0.0191925 0.000189682 -4.87133e-05 3.77937
0.375 0.01 -0.0195436 0.000186716 -4.96549e-05 3.84443
0.38 0.01 -0.019888 0.000183337 -5.05806e-05 3.90805
0.385 0.01 -0.0202249 0.000179543 -5.14884e-05 3.9701
0.39 0.01 -0.0205535 0.000175336 -5.23762e-05 4.03043
0.395 0.01 -0.0208731 0.000170718 -5.3242e-05 4.08891
0.4 0.01 -0.0211828 0.000165692 -5.40836e-05 4.14538
0.405 0.01 -0.0214819 0.000160261 -5.48991e-05 4.19972
0.41 0.01 -0.0217698 0.000154431 -5.56864e-05 4.2518
0.415 0.01 -0.0220456 0.000148208 -5.64436e-05 4.30148
0.42 0.01 -0.0223087 0.0001416 -5.71687e-05 4.34863
0.425 0.01 -0.0225584 0.000134615 -5.78598e-05 4.39314
0.43 0.01 -0.022794 0.000127264 -5.85151e-05 4.43488
0.435 0.01 -0.0230148 0.000119558 -5.91327e-05 4.47374
0.44 0.01 -0.0232203 0.000111508 -5.97109e-05 4.50961
0.445 0.01 -0.0234098 0.00010313 -6.0248e-05 4.54239
0.45 0.01 -0.0235828 9.44361e-05 -6.07425e-05 4.57197
0.455 0.01 -0.0237388 8.54439e-05 -6.11927e-05 4.59828
0.46 0.01 -0.0238772 7.61702e-05 -6.15972e-05 4.62122
0.465 0.01 -0.0239975 6.66329e-05 -6.19547e-05 4.64071
0.47 0.01 -0.0240994 5.68515e-05 -6.22638e-05 4.65668
0.475 0.01 -0.0241824 4.68462e-05 -6.25235e-05 4.66907
0.48 0.01 -0.0242462 3.66382e-05 -6.27326e-05 4.67782
0.485 0.01 -0.0242905 2.62499e-05 -6.28902e-05 4.68289
0.49 0.01 -0.0243149 1.57044e-05 -6.29954e-05 4.68422
0.495 0.01 -0.0243193 5.02558e-06 -6.30476e-05 4.68178
0.5 0.01 -0.0243035 -5.76183e-06 -6.3046e-05 4.67556
0.505 0.01 -0.0242673 -1.66324e-05 -6.29903e-05 4.66554
0.51 0.01 -0.0242107 -2.75602e-05 -6.28801e-05 4.6517
0.515 0.01 -0.0241336 -3.85186e-05 -6.27151e-05 4.63406
0.52 0.01 -0.024036 -4.94806e-05 -6.24952e-05 4.61261
0.525 0.01 -0.023918 -6.0419e-05 -6.22206e-05 4.58738
0.53 0.01 -0.0237797 -7.13061e-05 -6.18914e-05 4.5584
0.535 0.01 -0.0236212 -8.21141e-05 -6.15079e-05 4.5257
0.54 0.01 -0.0234427 -9.28152e-05 -6.10707e-05 4.48933
0.545 0.01 -0.0232446 -0.000103382 -6.05802e-05 4.44934
0.55 0.01 -0.0230271 -0.000113786 -6.00372e-05 4.4058
0.555 0.01 -0.0227905 -0.000124001 -5.94427e-05 4.35878
0.56 0.01 -0.0225353 -0.000133999 -5.87976e-05 4.30836
0.565 0.01 -0.022262 -0.000143755 -5.81031e-05 4.25463
0.57 0.01 -0.0219709 -0.000153241 -5.73604e-05 4.19767
0.575 0.01 -0.0216627 -0.000162434 -5.65711e-05 4.13761
0.58 0.01 -0.021338 -0.000171309 -5.57365e-05 4.07455
0.585 0.01 -0.0209973 -0.000179843 -5.48583e-05 4.0086
0.59 0.01 -0.0206414 -0.000188012 -5.39384e-05 3.9399
0.595 0.01 -0.0202709 -0.000195797 -5.29786e-05 3.86857
0.6 0.01 -0.0198866 -0.000203178 -5.19808e-05 3.79476
0.605 0.01 -0.0194893 -0.000210135 -5.09472e-05 3.7186
0.61 0.01 -0.0190797 -0.000216653 -4.98798e-05 3.64025
0.615 0.01 -0.0186587 -0.000222715 -4.8781e-05 3.55986
0.62 0.01 -0.0182272 -0.000228308 -4.7653e-05 3.47758
0.625 0.01 -0.017786 -0.000233419 -4.64983e-05 3.39358
0.63 0.01 -0.0173361 -0.000238039 -4.53192e-05 3.30803
0.635 0.01 -0.0168783 -0.000242159 -4.41182e-05 3.22108
0.64 0.01 -0.0164135 -0.000245771 -4.28979e-05 3.13291
0.645 0.01 -0.0159428 -0.000248872 -4.16608e-05 3.04369
0.65 0.01 -0.015467 -0.000251457 -4.04095e-05 2.95359
0.655 0.01 -0.0149871 -0.000253526 -3.91465e-05 2.86278
0.66 0.01 -0.0145041 -0.000255081 -3.78745e-05 2.77143
0.665 0.01 -0.0140188 -0.000256122 -3.6596e-05 2.67971
0.67 0.01 -0.0135323 -0.000256656 -3.53136e-05 2.58779
0.675 0.01 -0.0130454 -0.000256688 -3.40297e-05 2.49585
0.68 0.01 -0.0125591 -0.000256227 -3.27469e-05 2.40403
0.685 0.01 -0.0120742 -0.000255282 -3.14677e-05 2.31251
0.69 0.01 -0.0115916 -0.000253865 -3.01944e-05 2.22144
0.695 0.01 -0.0111122 -0.000251989 -2.89293e-05 2.13098
0.7 0.01 -0.0106368 -0.000249669 -2.76747e-05 2.04128
0.705 0.01 -0.0101662 -0.000246921 -2.64328e-05 1.95247
0.71 0.01 -0.00970121 -0.000243761 -2.52057e-05 1.86471
0.715 0.01 -0.00924248 -0.000240209 -2.39953e-05 1.77812
0.72 0.01 -0.00879076 -0.000236284 -2.28037e-05 1.69283
0.725 0.01 -0.00834672 -0.000232007 -2.16326e-05 1.60897
0.73 0.01 -0.00791098 -0.000227399 -2.04838e-05 1.52664
0.735 0.01 -0.00748413 -0.000222481 -1.93588e-05 1.44597
0.74 0.01 -0.00706672 -0.000217277 -1.82591e-05 1.36703
0.745 0.01 -0.00665927 -0.00021181 -1.71861e-05 1.28994
0.75 0.01 -0.00626224 -0.000206102 -1.61411e-05 1.21477
0.755 0.01 -0.00587605 -0.000200178 -1.51252e-05 1.14161
0.76 0.01 -0.0055011 -0.000194061 -1.41394e-05 1.07053
0.765 0.01 -0.0051377 -0.000187775 -1.31847e-05 1.00158
0.77 0.01 -0.00478618 -0.000181342 -1.22617e-05 0.934834
0.775 0.01 -0.00444677 -0.000174787 -1.13713e-05 0.870329
0.78 0.01 -0.0041197 -0.000168131 -1.05139e-05 0.808109
0.785 0.01 -0.00380514 -0.000161397 -9.69005e-06 0.748208
0.79 0.01 -0.00350322 -0.000154607 -8.9e-06 0.690653
0.795 0.01 -0.00321404 -0.000147781 -8.14401e-06 0.635463
0.8 0.01 -0.00293764 -0.00014094 -7.42221e-06 0.582651
0.805 0.01 -0.00267406 -0.000134102 -6.73463e-06 0.532223
0.81 0.01 -0.00242329 -0.000127287 -6.0812e-06 0.484179
0.815 0.01 -0.00218526 -0.000120511 -5.46176e-06 0.438513
0.82 0.01 -0.00195991 -0.000113792 -4.87609e-06 0.395214
0.825 0.01 -0.00174712 -0.000107143 -4.32385e-06 0.354263
0.83 0.01 -0.00154677 -0.000100581 -3.80465e-06 0.315639
0.835 0.01 -0.00135868 -9.41179e-05 -3.31802e-06 0.279313
0.84 0.01 -0.00118268 -8.7766e-05 -2.86345e-06 0.245255
0.845 0.01 -0.00101855 -8.15365e-05 -2.44035e-06 0.213427
0.85 0.01 -0.000866077 -7.54394e-05 -2.04807e-06 0.183791
0.855 0.01 -0.000725 -6.94838e-05 -1.68593e-06 0.156302
0.86 0.01 -0.000595061 -6.36775e-05 -1.35321e-06 0.130913
0.865 0.01 -0.000475983 -5.80276e-05 -1.04913e-06 0.107576
0.87 0.01 -0.000367474 -5.25402e-05 -7.72905e-07 0.0862375
0.875 0.01 -0.000269232 -4.72204e-05 -5.23703e-07 0.0668429
0.88 0.01 -0.000180944 -4.20729e-05 -3.00673e-07 0.0493354
0.885 0.01 -0.000102289 -3.71013e-05 -1.02946e-07 0.0336559
0.89 0.01 -3.29366e-05 -3.23091e-05 7.03682e-08 0.0197438
0.895 0.01 2.74505e-05 -2.76992e-05 2.20173e-07 0.00753661
0.9 0.01 7.92159e-05 -2.32742e-05 3.47387e-07 -0.0030297
0.905 0.01 0.00012271 -1.9037e-05 4.52942e-07 -0.0120209
0.91 0.01 0.000158291 -1.49904e-05 5.37782e-07 -0.0195045
0.915 0.01 0.000186325 -1.11382e-05 6.0287e-07 -0.0255501
0.92 0.01 0.000207185 -7.48474e-06 6.49187e-07 -0.0302294
0.925 0.01 0.000221261 -4.03614e-06 6.77739e-07 -0.0336168
0.93 0.01 0.000228951 -8.00339e-07 6.89568e-07 -0.0357903
0.935 0.01 0.000230679 2.21189e-06 6.8576e-07 -0.036832
0.94 0.01 0.00022689 4.9861e-06 6.67465e-07 -0.036829
0.945 0.01 0.000218062 7.50289e-06 6.35913e-07 -0.0358755
0.95 0.01 0.000204715 9.73638e-06 5.92448e-07 -0.0340735
0.955 0.01 0.000187425 1.1652e-05 5.3856e-07 -0.031536
0.96 0.01 0.000166836 1.3204e-05 4.75937e-07 -0.0283885
0.965 0.01 0.000143686 1.43312e-05 4.06527e-07 -0.0247728
0.97 0.01 0.000118822 1.49528e-05 3.32629e-07 -0.0208497
0.975 0.01 9.3241e-05 1.49617e-05 2.57003e-07 -0.0168019
0.98 0.01 6.81107e-05 1.42198e-05 1.83014e-07 -0.0128345
0.985 0.01 4.48024e-05 1.25586e-05 1.14806e-07 -0.00916983
0.99 0.01 2.48851e-05 9.81243e-06 5.74281e-08 -0.00602514
0.995 0.01 1.003e-05 5.9634e-06 1.66816e-08 -0.00355189
1 0.01 1.66399e-06 1.66816e-06 -2.20609e-09 -0.00168585
0 0.015 0 0 -0.00133119 0
0.005 0.015 0 0 0 -255.982
0.01 0.015 -0.1528 0.184766 -0.00180022 -79.2814
0.015 0.015 -0.206092 -0.0238145 -0.00184766 -16.6477
0.02 0.015 -0.204365 -0.0574286 -0.00156208 2.33147
0.025 0.015 -0.184349 -0.0522437 -0.00127338 7.96335
0.03 0.015 -0.160933 -0.0415027 -0.00103964 9.30033
0.035 0.015 -0.139102 -0.0322238 -0.000858349 9.17791
0.04 0.015 -0.120123 -0.0252175 -0.000717403 8.56721
0.045 0.015 -0.104006 -0.0200469 -0.000606174 7.82307
0.05 0.015 -0.0904061 -0.0161884 -0.000516934 7.07899
0.055 0.015 -0.0789266 -0.0132467 -0.00044429 6.38418
0.06 0.015 -0.0692132 -0.0109529 -0.000384466 5.75443
0.065 0.015 -0.0609712 -0.00912784 -0.000334761 5.19207
0.07 0.015 -0.05396 -0.00765147 -0.000293188 4.69403
0.075 0.015 -0.0479844 -0.0064412 -0.000258246 4.25527
0.08 0.015 -0.0428844 -0.00543869 -0.000228775 3.87018
0.085 0.015 -0.0385284 -0.00460146 -0.000203859 3.53325
0.09 0.015 -0.034807 -0.00389772 -0.00018276 3.23931
0.095 0.015 -0.0316287 -0.00330306 -0.000164881 2.98361
0.1 0.015 -0.0289166 -0.00279835 -0.000149729 2.76187
0.105 0.015 -0.0266059 -0.00236833 -0.000136897 2.57024
0.11 0.015 -0.0246414 -0.00200067 -0.000126045 2.4053
0.115 0.015 -0.0229766 -0.00168529 -0.00011689 2.26401
0.12 0.015 -0.0215714 -0.00141387 -0.000109192 2.14366
0.125 0.015 -0.0203922 -0.00117954 -0.000102751 2.0419
0.13 0.015 -0.0194098 -0.000976552 -9.73964e-05 1.95664
0.135 0.015 -0.0185995 -0.0008001 -9.2985e-05 1.88602
0.14 0.015 -0.0179401 -0.000646157 -8.93951e-05 1.82845
0.145 0.015 -0.0174135 -0.000511333 -8.65231e-05 1.7825
0.15 0.015 -0.0170041 -0.000392773 -8.42814e-05 1.74695
0.155 0.015 -0.0166985 -0.000288066 -8.25951e-05 1.72069
0.16 0.015 -0.0164854 -0.000195177 -8.14004e-05 1.70279
0.165 0.015 -0.0163547 -0.000112384 -8.0643e-05 1.69241
0.17 0.015 -0.0162981 -3.82313e-05 -8.02763e-05 1.68882
0.175 0.015 -0.0163081 2.85137e-05 -8.02604e-05 1.69138
0.18 0.015 -0.0163785 8.88927e-05 -8.05612e-05 1.69953
0.185 0.015 -0.0165037 0.000143787 -8.11491e-05 1.71277
0.19 0.015 -0.016679 0.00019394 -8.19988e-05 1.73067
0.195 0.015 -0.0169002 0.000239979 -8.30883e-05 1.75285
0.2 0.015 -0.0171637 0.000282434 -8.43984e-05 1.77895
0.205 0.015 -0.0174661 0.000321748 -8.59124e-05 1.80867
0.21 0.015 -0.0178049 0.000358293 -8.76157e-05 1.84173
0.215 0.015 -0.0181772 0.000392378 -8.94952e-05 1.8779
0.22 0.015 -0.018581 0.000424263 -9.15393e-05 1.91693
0.225 0.015 -0.0190142 0.00045416 -9.37377e-05 1.95864
0.23 0.015 -0.0194748 0.000482244 -9.60808e-05 2.00282
0.235 0.015 -0.0199611 0.000508657 -9.856e-05 2.04929
0.24 0.015 -0.0204716 0.000533513 -0.000101167 2.0979
0.245 0.015 -0.0210047 0.000556904 -0.000103895 2.14849
0.25 0.015 -0.021559 0.000578899 -0.000106736 2.2009
0.255 0.015 -0.0221331 0.000599553 -0.000109684 2.255
0.26 0.015 -0.0227256 0.000618903 -0.000112732 2.31063
0.265 0.015 -0.0233353 0.000636977 -0.000115873 2.36768
0.27 0.015 -0.0239608 0.00065379 -0.000119102 2.426
0.275 0.015 -0.024601 0.00066935 -0.000122411 2.48546
0.28 0.015 -0.0252545 0.000683657 -0.000125795 2.54594
0.285 0.015 -0.0259201 0.000696704 -0.000129248 2.6073
0.29 0.015 -0.0265964 0.000708482 -0.000132762 2.66942
0.295 0.015 -0.0272823 0.000718975 -0.000136333 2.73216
0.3 0.015 -0.0279764 0.000728165 -0.000139952 2.79541
0.305 0.015 -0.0286775 0.000736033 -0.000143614 2.85902
0.31 0.015 -0.0293841 0.000742557 -0.000147313 2.92287
0.315 0.015 -0.0300951 0.000747714 -0.00015104 2.98683
0.32 0.015 -0.0308089 0.000751481 -0.00015479 3.05077
0.325 0.015 -0.0315243 0.000753835 -0.000158555 3.11455
0.33 0.015 -0.0322398 0.000754754 -0.000162329 3.17805
0.335 0.015 -0.0329541 0.000754216 -0.000166103 3.24114
0.34 0.015 -0.0336657 0.000752202 -0.000169871 3.30368
0.345 0.015 -0.0343732 0.000748693 -0.000173626 3.36554
0.35 0.015 -0.0350752 0.000743673 -0.000177359 3.42659
0.355 0.015 -0.0357702 0.000737128 -0.000181063 3.48669
0.36 0.015 -0.0364567 0.000729047 -0.00018473 3.54573
0.365 0.015 -0.0371333 0.000719422 -0.000188354 3.60357
0.37 0.015 -0.0377986 0.000708247 -0.000191925 3.66008
0.375 0.015 -0.038451 0.00069552 -0.000195437 3.71514
0.38 0.015 -0.0390892 0.000681244 -0.000198881 3.76863
0.385 0.015 -0.0397116 0.000665422 -0.00020225 3.82041
0.39 0.015 -0.040317 0.000648065 -0.000205536 3.87038
0.395 0.015 -0.0409037 0.000629186 -0.000208731 3.91841
0.4 0.015 -0.0414705 0.0006088 -0.000211828 3.96439
0.405 0.015 -0.0420161 0.00058693 -0.00021482 4.00821
0.41 0.015 -0.0425389 0.0005636 -0.000217699 4.04977
0.415 0.015 -0.0430378 0.00053884 -0.000220457 4.08896
0.42 0.015 -0.0435115 0.000512684 -0.000223088 4.12568
0.425 0.015 -0.0439587 0.00048517 -0.000225585 4.15984
0.43 0.015 -0.0443782 0.000456341 -0.00022794 4.19136
0.435 0.015 -0.044769 0.000426242 -0.000230149 4.22013
0.44 0.015 -0.0451298 0.000394924 -0.000232204 4.24609
0.445 0.015 -0.0454597 0.000362442 -0.000234099 4.26916
0.45 0.015 -0.0457577 0.000328856 -0.000235829 4.28928
0.455 0.015 -0.0460228 0.000294229 -0.000237389 4.30637
0.46 0.015 -0.0462542 0.000258626 -0.000238773 4.32039
0.465 0.015 -0.0464511 0.000222119 -0.000239976 4.33129
0.47 0.015 -0.0466127 0.000184782 -0.000240995 4.33901
0.475 0.015 -0.0467385 0.000146692 -0.000241825 4.34353
0.48 0.015 -0.0468278 0.00010793 -0.000242463 4.34481
0.485 0.015 -0.0468801 6.85806e-05 -0.000242906 4.34282
0.49 0.015 -0.046895 2.87301e-05 -0.00024315 4.33756
0.495 0.015 -0.0468722 -1.15321e-05 -0.000243194 4.32901
0.5 0.015 -0.0468114 -5.21142e-05 -0.000243036 4.31717
0.505 0.015 -0.0467125 -9.29225e-05 -0.000242675 4.30204
0.51 0.015 -0.0465754 -0.000133861 -0.000242109 4.28364
0.515 0.015 -0.0464 -0.000174833 -0.000241337 4.26197
0.52 0.015 -0.0461864 -0.00021574 -0.000240362 4.23707
0.525 0.015 -0.045935 -0.000256482 -0.000239181 4.20897
0.53 0.015 -0.0456458 -0.00029696 -0.000237798 4.1777
0.535 0.015 -0.0453194 -0.000337074 -0.000236213 4.14332
0.54 0.015 -0.0449561 -0.000376723 -0.000234429 4.10587
0.545 0.015 -0.0445565 -0.000415809 -0.000232448 4.06541
0.55 0.015 -0.0441212 -0.000454232 -0.000230272 4.02201
0.555 0.015 -0.0436509 -0.000491896 -0.000227907 3.97575
0.56 0.015 -0.0431464 -0.000528705 -0.000225355 3.92669
0.565 0.015 -0.0426087 -0.000564565 -0.000222621 3.87493
0.57 0.015 -0.0420386 -0.000599385 -0.000219711 3.82054
0.575 0.015 -0.0414373 -0.000633078 -0.000216629 3.76364
0.58 0.015 -0.0408057 -0.000665557 -0.000213381 3.70431
0.585 0.015 -0.0401453 -0.000696741 -0.000209975 3.64267
0.59 0.015 -0.039457 -0.000726553 -0.000206415 3.57881
0.595 0.015 -0.0387424 -0.00075492 -0.00020271 3.51287
0.6 0.015 -0.0380028 -0.000781772 -0.000198868 3.44495
0.605 0.015 -0.0372397 -0.000807047 -0.000194894 3.37518
0.61 0.015 -0.0364544 -0.000830684 -0.000190798 3.30368
0.615 0.015 -0.0356486 -0.000852633 -0.000186589 3.23058
0.62 0.015 -0.0348239 -0.000872844 -0.000182273 3.15602
0.625 0.015 -0.0339818 -0.000891277 -0.000177862 3.08012
0.63 0.015 -0.033124 -0.000907898 -0.000173362 3.00302
0.635 0.015 -0.0322523 -0.000922676 -0.000168784 2.92486
0.64 0.015 -0.0313682 -0.000935591 -0.000164136 2.84577
0.645 0.015 -0.0304735 -0.000946626 -0.000159429 2.7659
0.65 0.015 -0.02957 -0.000955773 -0.000154671 2.68539
0.655 0.015 -0.0286593 -0.000963029 -0.000149872 2.60436
0.66 0.015 -0.0277432 -0.000968398 -0.000145042 2.52297
0.665 0.015 -0.0268234 -0.000971892 -0.00014019 2.44135
0.67 0.015 -0.0259016 -0.000973527 -0.000135324 2.35962
0.675 0.015 -0.0249795 -0.000973328 -0.000130455 2.27794
0.68 0.015 -0.0240587 -0.000971325 -0.000125592 2.19643
0.685 0.015 -0.0231408 -0.000967555 -0.000120743 2.11522
0.69 0.015 -0.0222276 -0.000962058 -0.000115917 2.03444
0.695 0.015 -0.0213204 -0.000954882 -0.000111123 1.95422
0.7 0.015 -0.0204208 -0.00094608 -0.000106369 1.87466
0.705 0.015 -0.0195303 -0.00093571 -0.000101663 1.7959
0.71 0.015 -0.0186503 -0.000923834 -9.70128e-05 1.71804
0.715 0.015 -0.0177821 -0.000910518 -9.24255e-05 1.6412
0.72 0.015 -0.0169269 -0.000895832 -8.79083e-05 1.56547
0.725 0.015 -0.0160861 -0.000879851 -8.34678e-05 1.49095
0.73 0.015 -0.0152608 -0.00086265 -7.91103e-05 1.41775
0.735 0.015 -0.0144521 -0.000844309 -7.48418e-05 1.34595
0.74 0.015 -0.0136609 -0.000824908 -7.06677e-05 1.27563
0.745 0.015 -0.0128882 -0.000804531 -6.65932e-05 1.20687
0.75 0.015 -0.0121349 -0.000783262 -6.26228e-05 1.13975
0.755 0.015 -0.0114017 -0.000761185 -5.87609e-05 1.07432
0.76 0.015 -0.0106895 -0.000738386 -5.50113e-05 1.01066
0.765 0.015 -0.00999872 -0.00071495 -5.13773e-05 0.948814
0.77 0.015 -0.00933004 -0.00069096 -4.78621e-05 0.888835
0.775 0.015 -0.00868392 -0.000666502 -4.4468e-05 0.830765
0.78 0.015 -0.00806077 -0.000641656 -4.11973e-05 0.774643
0.785 0.015 -0.00746092 -0.000616504 -3.80516e-05 0.720499
0.79 0.015 -0.00688464 -0.000591124 -3.50324e-05 0.668361
0.795 0.015 -0.00633213 -0.000565593 -3.21405e-05 0.618249
0.8 0.015 -0.0058035 -0.000539984 -2.93765e-05 0.570178
0.805 0.015 -0.00529881 -0.000514368 -2.67407e-05 0.524158
0.81 0.015 -0.00481807 -0.000488813 -2.42329e-05 0.480194
0.815 0.015 -0.00436121 -0.000463384 -2.18526e-05 0.438284
0.82 0.015 -0.00392809 -0.00043814 -1.95991e-05 0.398425
0.825 0.015 -0.00351855 -0.000413141 -1.74712e-05 0.360605
0.83 0.015 -0.00313236 -0.000388439 -1.54677e-05 0.324812