Title=" Lid Driven Flow"
VARIABLES="X","Y","U","V","psi","xi"
ZONE T= "BOX", I= 201, J=201, F=POINT
0 0 0 0 0.00240279 0
0.005 0 0 0 0 0
0.01 0 0 0 0 0
0.015 0 0 0 0 161.891
0.02 0 0 0 0 176.125
0.025 0 0 0 0 155.61
0.03 0 0 0 0 133.228
0.035 0 0 0 0 115.716
0.04 0 0 0 0 102.869
0.045 0 0 0 0 93.3412
0.05 0 0 0 0 86.0219
0.055 0 0 0 0 80.1776
0.06 0 0 0 0 75.3497
0.065 0 0 0 0 71.2494
0.07 0 0 0 0 67.6894
0.075 0 0 0 0 64.5435
0.08 0 0 0 0 61.7237
0.085 0 0 0 0 59.167
0.09 0 0 0 0 56.8271
0.095 0 0 0 0 54.669
0.1 0 0 0 0 52.6663
0.105 0 0 0 0 50.7982
0.11 0 0 0 0 49.0484
0.115 0 0 0 0 47.4037
0.12 0 0 0 0 45.8535
0.125 0 0 0 0 44.3887
0.13 0 0 0 0 43.0021
0.135 0 0 0 0 41.6871
0.14 0 0 0 0 40.4383
0.145 0 0 0 0 39.2508
0.15 0 0 0 0 38.1203
0.155 0 0 0 0 37.0429
0.16 0 0 0 0 36.0151
0.165 0 0 0 0 35.0337
0.17 0 0 0 0 34.0958
0.175 0 0 0 0 33.1984
0.18 0 0 0 0 32.3392
0.185 0 0 0 0 31.5156
0.19 0 0 0 0 30.7255
0.195 0 0 0 0 29.9667
0.2 0 0 0 0 29.2372
0.205 0 0 0 0 28.535
0.21 0 0 0 0 27.8585
0.215 0 0 0 0 27.2059
0.22 0 0 0 0 26.5756
0.225 0 0 0 0 25.9661
0.23 0 0 0 0 25.376
0.235 0 0 0 0 24.8039
0.24 0 0 0 0 24.2486
0.245 0 0 0 0 23.7087
0.25 0 0 0 0 23.1833
0.255 0 0 0 0 22.6712
0.26 0 0 0 0 22.1715
0.265 0 0 0 0 21.6831
0.27 0 0 0 0 21.2051
0.275 0 0 0 0 20.7369
0.28 0 0 0 0 20.2776
0.285 0 0 0 0 19.8264
0.29 0 0 0 0 19.3827
0.295 0 0 0 0 18.946
0.3 0 0 0 0 18.5155
0.305 0 0 0 0 18.0909
0.31 0 0 0 0 17.6716
0.315 0 0 0 0 17.2571
0.32 0 0 0 0 16.8472
0.325 0 0 0 0 16.4414
0.33 0 0 0 0 16.0395
0.335 0 0 0 0 15.6412
0.34 0 0 0 0 15.2461
0.345 0 0 0 0 14.8542
0.35 0 0 0 0 14.4653
0.355 0 0 0 0 14.0792
0.36 0 0 0 0 13.6958
0.365 0 0 0 0 13.3151
0.37 0 0 0 0 12.9371
0.375 0 0 0 0 12.5616
0.38 0 0 0 0 12.1887
0.385 0 0 0 0 11.8185
0.39 0 0 0 0 11.451
0.395 0 0 0 0 11.0864
0.4 0 0 0 0 10.7246
0.405 0 0 0 0 10.3659
0.41 0 0 0 0 10.0103
0.415 0 0 0 0 9.65811
0.42 0 0 0 0 9.3094
0.425 0 0 0 0 8.96438
0.43 0 0 0 0 8.62326
0.435 0 0 0 0 8.28623
0.44 0 0 0 0 7.95352
0.445 0 0 0 0 7.62535
0.45 0 0 0 0 7.30193
0.455 0 0 0 0 6.9835
0.46 0 0 0 0 6.67028
0.465 0 0 0 0 6.3625
0.47 0 0 0 0 6.06038
0.475 0 0 0 0 5.76414
0.48 0 0 0 0 5.474
0.485 0 0 0 0 5.19015
0.49 0 0 0 0 4.91278
0.495 0 0 0 0 4.64209
0.5 0 0 0 0 4.37824
0.505 0 0 0 0 4.12139
0.51 0 0 0 0 3.87167
0.515 0 0 0 0 3.62922
0.52 0 0 0 0 3.39415
0.525 0 0 0 0 3.16654
0.53 0 0 0 0 2.94647
0.535 0 0 0 0 2.734
0.54 0 0 0 0 2.52916
0.545 0 0 0 0 2.33197
0.55 0 0 0 0 2.14243
0.555 0 0 0 0 1.96053
0.56 0 0 0 0 1.78622
0.565 0 0 0 0 1.61945
0.57 0 0 0 0 1.46016
0.575 0 0 0 0 1.30825
0.58 0 0 0 0 1.16362
0.585 0 0 0 0 1.02615
0.59 0 0 0 0 0.895716
0.595 0 0 0 0 0.772168
0.6 0 0 0 0 0.655351
0.605 0 0 0 0 0.545101
0.61 0 0 0 0 0.441241
0.615 0 0 0 0 0.343589
0.62 0 0 0 0 0.251954
0.625 0 0 0 0 0.166139
0.63 0 0 0 0 0.0859443
0.635 0 0 0 0 0.0111644
0.64 0 0 0 0 -0.0584082
0.645 0 0 0 0 -0.122983
0.65 0 0 0 0 -0.18277
0.655 0 0 0 0 -0.237981
0.66 0 0 0 0 -0.288826
0.665 0 0 0 0 -0.335514
0.67 0 0 0 0 -0.378252
0.675 0 0 0 0 -0.417247
0.68 0 0 0 0 -0.452701
0.685 0 0 0 0 -0.484815
0.69 0 0 0 0 -0.513787
0.695 0 0 0 0 -0.539809
0.7 0 0 0 0 -0.56307
0.705 0 0 0 0 -0.583757
0.71 0 0 0 0 -0.602048
0.715 0 0 0 0 -0.618119
0.72 0 0 0 0 -0.632137
0.725 0 0 0 0 -0.644265
0.73 0 0 0 0 -0.654657
0.735 0 0 0 0 -0.663459
0.74 0 0 0 0 -0.670809
0.745 0 0 0 0 -0.676834
0.75 0 0 0 0 -0.681652
0.755 0 0 0 0 -0.68537
0.76 0 0 0 0 -0.688082
0.765 0 0 0 0 -0.689872
0.77 0 0 0 0 -0.690811
0.775 0 0 0 0 -0.690955
0.78 0 0 0 0 -0.690351
0.785 0 0 0 0 -0.689032
0.79 0 0 0 0 -0.687017
0.795 0 0 0 0 -0.684316
0.8 0 0 0 0 -0.680926
0.805 0 0 0 0 -0.676834
0.81 0 0 0 0 -0.672018
0.815 0 0 0 0 -0.666448
0.82 0 0 0 0 -0.660086
0.825 0 0 0 0 -0.652889
0.83 0 0 0 0 -0.644812
0.835 0 0 0 0 -0.635803
0.84 0 0 0 0 -0.625814
0.845 0 0 0 0 -0.614794
0.85 0 0 0 0 -0.602697
0.855 0 0 0 0 -0.58948
0.86 0 0 0 0 -0.575107
0.865 0 0 0 0 -0.559549
0.87 0 0 0 0 -0.542785
0.875 0 0 0 0 -0.524806
0.88 0 0 0 0 -0.505615
0.885 0 0 0 0 -0.485229
0.89 0 0 0 0 -0.463679
0.895 0 0 0 0 -0.441011
0.9 0 0 0 0 -0.41729
0.905 0 0 0 0 -0.392597
0.91 0 0 0 0 -0.367032
0.915 0 0 0 0 -0.340715
0.92 0 0 0 0 -0.313787
0.925 0 0 0 0 -0.286406
0.93 0 0 0 0 -0.258754
0.935 0 0 0 0 -0.231032
0.94 0 0 0 0 -0.203466
0.945 0 0 0 0 -0.176301
0.95 0 0 0 0 -0.149807
0.955 0 0 0 0 -0.124275
0.96 0 0 0 0 -0.100022
0.965 0 0 0 0 -0.0773896
0.97 0 0 0 0 -0.0567416
0.975 0 0 0 0 -0.0384659
0.98 0 0 0 0 -0.0229668
0.985 0 0 0 0 -0.010651
0.99 0 0 0 0 -0.00189277
0.995 0 0 0 0 0.00304873
1 0 0 0 0 0.00422004
0 0.005 0 0 0 0
0.005 0.005 0 0 0 0
0.01 0.005 0 0 0 73.7273
0.015 0.005 0 0 0 62.0457
0.02 0.005 0 0 0 45.6677
0.025 0.005 0 0 0 33.8835
0.03 0.005 0 0 0 25.9896
0.035 0.005 0 0 0 20.5846
0.04 0.005 0 0 0 16.7215
0.045 0.005 0 0 0 13.843
0.05 0.005 0 0 0 11.624
0.055 0.005 0 0 0 9.86912
0.06 0.005 0 0 0 8.45489
0.065 0.005 0 0 0 7.29953
0.07 0.005 0 0 0 6.34624
0.075 0.005 0 0 0 5.55394
0.08 0.005 0 0 0 4.89193
0.085 0.005 0 0 0 4.33665
0.09 0.005 0 0 0 3.8696
0.095 0.005 0 0 0 3.47605
0.1 0.005 0 0 0 3.1441
0.105 0.005 0 0 0 2.86405
0.11 0.005 0 0 0 2.62791
0.115 0.005 0 0 0 2.4291
0.12 0.005 0 0 0 2.26213
0.125 0.005 0 0 0 2.12245
0.13 0.005 0 0 0 2.00621
0.135 0.005 0 0 0 1.91022
0.14 0.005 0 0 0 1.83177
0.145 0.005 0 0 0 1.76859
0.15 0.005 0 0 0 1.71875
0.155 0.005 0 0 0 1.68062
0.16 0.005 0 0 0 1.65283
0.165 0.005 0 0 0 1.6342
0.17 0.005 0 0 0 1.62373
0.175 0.005 0 0 0 1.62057
0.18 0.005 0 0 0 1.62399
0.185 0.005 0 0 0 1.63336
0.19 0.005 0 0 0 1.64815
0.195 0.005 0 0 0 1.66789
0.2 0.005 0 0 0 1.69218
0.205 0.005 0 0 0 1.72067
0.21 0.005 0 0 0 1.75305
0.215 0.005 0 0 0 1.78905
0.22 0.005 0 0 0 1.82844
0.225 0.005 0 0 0 1.87099
0.23 0.005 0 0 0 1.91651
0.235 0.005 0 0 0 1.96482
0.24 0.005 0 0 0 2.01577
0.245 0.005 0 0 0 2.06919
0.25 0.005 0 0 0 2.12493
0.255 0.005 0 0 0 2.18287
0.26 0.005 0 0 0 2.24287
0.265 0.005 0 0 0 2.3048
0.27 0.005 0 0 0 2.36853
0.275 0.005 0 0 0 2.43394
0.28 0.005 0 0 0 2.5009
0.285 0.005 0 0 0 2.56928
0.29 0.005 0 0 0 2.63896
0.295 0.005 0 0 0 2.70981
0.3 0.005 0 0 0 2.7817
0.305 0.005 0 0 0 2.8545
0.31 0.005 0 0 0 2.92807
0.315 0.005 0 0 0 3.00228
0.32 0.005 0 0 0 3.077
0.325 0.005 0 0 0 3.15207
0.33 0.005 0 0 0 3.22735
0.335 0.005 0 0 0 3.30271
0.34 0.005 0 0 0 3.37798
0.345 0.005 0 0 0 3.45303
0.35 0.005 0 0 0 3.5277
0.355 0.005 0 0 0 3.60182
0.36 0.005 0 0 0 3.67526
0.365 0.005 0 0 0 3.74785
0.37 0.005 0 0 0 3.81943
0.375 0.005 0 0 0 3.88984
0.38 0.005 0 0 0 3.95893
0.385 0.005 0 0 0 4.02654
0.39 0.005 0 0 0 4.0925
0.395 0.005 0 0 0 4.15667
0.4 0.005 0 0 0 4.21889
0.405 0.005 0 0 0 4.279
0.41 0.005 0 0 0 4.33684
0.415 0.005 0 0 0 4.39228
0.42 0.005 0 0 0 4.44517
0.425 0.005 0 0 0 4.49536
0.43 0.005 0 0 0 4.54271
0.435 0.005 0 0 0 4.58709
0.44 0.005 0 0 0 4.62838
0.445 0.005 0 0 0 4.66645
0.45 0.005 0 0 0 4.70117
0.455 0.005 0 0 0 4.73245
0.46 0.005 0 0 0 4.76018
0.465 0.005 0 0 0 4.78425
0.47 0.005 0 0 0 4.80458
0.475 0.005 0 0 0 4.82109
0.48 0.005 0 0 0 4.8337
0.485 0.005 0 0 0 4.84235
0.49 0.005 0 0 0 4.84699
0.495 0.005 0 0 0 4.84756
0.5 0.005 0 0 0 4.84403
0.505 0.005 0 0 0 4.83637
0.51 0.005 0 0 0 4.82457
0.515 0.005 0 0 0 4.80862
0.52 0.005 0 0 0 4.78852
0.525 0.005 0 0 0 4.76429
0.53 0.005 0 0 0 4.73595
0.535 0.005 0 0 0 4.70353
0.54 0.005 0 0 0 4.66708
0.545 0.005 0 0 0 4.62666
0.55 0.005 0 0 0 4.58233
0.555 0.005 0 0 0 4.53417
0.56 0.005 0 0 0 4.48226
0.565 0.005 0 0 0 4.4267
0.57 0.005 0 0 0 4.3676
0.575 0.005 0 0 0 4.30508
0.58 0.005 0 0 0 4.23924
0.585 0.005 0 0 0 4.17023
0.59 0.005 0 0 0 4.09819
0.595 0.005 0 0 0 4.02327
0.6 0.005 0 0 0 3.94562
0.605 0.005 0 0 0 3.86539
0.61 0.005 0 0 0 3.78277
0.615 0.005 0 0 0 3.69792
0.62 0.005 0 0 0 3.61102
0.625 0.005 0 0 0 3.52225
0.63 0.005 0 0 0 3.4318
0.635 0.005 0 0 0 3.33986
0.64 0.005 0 0 0 3.2466
0.645 0.005 0 0 0 3.15224
0.65 0.005 0 0 0 3.05695
0.655 0.005 0 0 0 2.96093
0.66 0.005 0 0 0 2.86438
0.665 0.005 0 0 0 2.76747
0.67 0.005 0 0 0 2.6704
0.675 0.005 0 0 0 2.57336
0.68 0.005 0 0 0 2.47652
0.685 0.005 0 0 0 2.38007
0.69 0.005 0 0 0 2.28417
0.695 0.005 0 0 0 2.189
0.7 0.005 0 0 0 2.09471
0.705 0.005 0 0 0 2.00147
0.71 0.005 0 0 0 1.90941
0.715 0.005 0 0 0 1.81869
0.72 0.005 0 0 0 1.72944
0.725 0.005 0 0 0 1.64179
0.73 0.005 0 0 0 1.55585
0.735 0.005 0 0 0 1.47173
0.74 0.005 0 0 0 1.38955
0.745 0.005 0 0 0 1.3094
0.75 0.005 0 0 0 1.23135
0.755 0.005 0 0 0 1.15549
0.76 0.005 0 0 0 1.08189
0.765 0.005 0 0 0 1.01061
0.77 0.005 0 0 0 0.941701
0.775 0.005 0 0 0 0.875202
0.78 0.005 0 0 0 0.811153
0.785 0.005 0 0 0 0.74958
0.79 0.005 0 0 0 0.690504
0.795 0.005 0 0 0 0.633938
0.8 0.005 0 0 0 0.579886
0.805 0.005 0 0 0 0.528348
0.81 0.005 0 0 0 0.479315
0.815 0.005 0 0 0 0.432775
0.82 0.005 0 0 0 0.388706
0.825 0.005 0 0 0 0.347084
0.83 0.005 0 0 0 0.307878
0.835 0.005 0 0 0 0.271055
0.84 0.005 0 0 0 0.236574
0.845 0.005 0 0 0 0.204394
0.85 0.005 0 0 0 0.174467
0.855 0.005 0 0 0 0.146744
0.86 0.005 0 0 0 0.121173
0.865 0.005 0 0 0 0.0976991
0.87 0.005 0 0 0 0.0762661
0.875 0.005 0 0 0 0.0568152
0.88 0.005 0 0 0 0.0392865
0.885 0.005 0 0 0 0.0236187
0.89 0.005 0 0 0 0.00974942
0.895 0.005 0 0 0 -0.00238446
0.9 0.005 0 0 0 -0.012847
0.905 0.005 0 0 0 -0.0217032
0.91 0.005 0 0 0 -0.0290185
0.915 0.005 0 0 0 -0.0348597
0.92 0.005 0 0 0 -0.0392948
0.925 0.005 0 0 0 -0.0423932
0.93 0.005 0 0 0 -0.0442269
0.935 0.005 0 0 0 -0.0448708
0.94 0.005 0 0 0 -0.044404
0.945 0.005 0 0 0 -0.0429117
0.95 0.005 0 0 0 -0.0404863
0.955 0.005 0 0 0 -0.0372311
0.96 0.005 0 0 0 -0.0332631
0.965 0.005 0 0 0 -0.0287183
0.97 0.005 0 0 0 -0.0237579
0.975 0.005 0 0 0 -0.018577
0.98 0.005 0 0 0 -0.0134156
0.985 0.005 0 0 0 -0.00857316
0.99 0.005 0 0 0 -0.00442045
0.995 0.005 0 0 0 -0.00139462
1 0.005 0 0 0 8.60813e-05
0 0.01 0 0 8.60813e-05 0
0.005 0.01 0 0 0 -326.273
0.01 0.01 -0.180018 0.0775571 -0.000921591 -44.4245
0.015 0.01 -0.18475 -0.0350745 -0.000775571 9.50606
0.02 0.01 -0.156178 -0.0352028 -0.000570847 19.1001
0.025 0.01 -0.127302 -0.0245977 -0.000423544 18.9825
0.03 0.01 -0.103935 -0.0166236 -0.00032487 16.8288
0.035 0.01 -0.0858246 -0.0115852 -0.000257307 14.5162
0.04 0.01 -0.0717576 -0.00842704 -0.000209019 12.4738
0.045 0.01 -0.060668 -0.00637186 -0.000173037 10.754
0.05 0.01 -0.0517796 -0.00496729 -0.0001453 9.31985
0.055 0.01 -0.0445507 -0.0039614 -0.000123364 8.1215
0.06 0.01 -0.0386018 -0.00321197 -0.000105686 7.11528
0.065 0.01 -0.0336616 -0.00263581 -9.12441e-05 6.26613
0.07 0.01 -0.0295306 -0.00218199 -7.93279e-05 5.5465
0.075 0.01 -0.0260586 -0.00181788 -6.94241e-05 4.93467
0.08 0.01 -0.0231296 -0.0015216 -6.11491e-05 4.41326
0.085 0.01 -0.0206519 -0.0012779 -5.4208e-05 3.96824
0.09 0.01 -0.0185524 -0.00107573 -4.83699e-05 3.5881
0.095 0.01 -0.0167715 -0.00090686 -4.34505e-05 3.26333
0.1 0.01 -0.0152604 -0.000764993 -3.93012e-05 2.98599
0.105 0.01 -0.0139788 -0.000645228 -3.58005e-05 2.74942
0.11 0.01 -0.0128931 -0.000543674 -3.28488e-05 2.54798
0.115 0.01 -0.0119752 -0.00045721 -3.03636e-05 2.37692
0.12 0.01 -0.0112017 -0.000383306 -2.82766e-05 2.23219
0.125 0.01 -0.0105527 -0.000319894 -2.65305e-05 2.11035
0.13 0.01 -0.0100114 -0.000265274 -2.50775e-05 2.00846
0.135 0.01 -0.00956363 -0.000218041 -2.38776e-05 1.92401
0.14 0.01 -0.00919746 -0.000177028 -2.2897e-05 1.85485
0.145 0.01 -0.00890264 -0.000141265 -2.21072e-05 1.79915
0.15 0.01 -0.00867051 -0.000109943 -2.14843e-05 1.75532
0.155 0.01 -0.00849364 -8.23825e-05 -2.10077e-05 1.72201
0.16 0.01 -0.00836574 -5.80156e-05 -2.06603e-05 1.69805
0.165 0.01 -0.00828139 -3.63648e-05 -2.04275e-05 1.68244
0.17 0.01 -0.00823597 -1.70289e-05 -2.02966e-05 1.67431
0.175 0.01 -0.0082255 3.29872e-07 -2.02571e-05 1.67292
0.18 0.01 -0.00824657 1.59957e-05 -2.02998e-05 1.67762
0.185 0.01 -0.00829622 3.02078e-05 -2.0417e-05 1.68784
0.19 0.01 -0.0083719 4.31675e-05 -2.06018e-05 1.70309
0.195 0.01 -0.00847139 5.50442e-05 -2.08486e-05 1.72294
0.2 0.01 -0.00859277 6.59801e-05 -2.11522e-05 1.74703
0.205 0.01 -0.00873433 7.60943e-05 -2.15083e-05 1.77501
0.21 0.01 -0.00889458 8.54865e-05 -2.19131e-05 1.8066
0.215 0.01 -0.00907221 9.42399e-05 -2.23631e-05 1.84152
0.22 0.01 -0.00926602 0.000102423 -2.28554e-05 1.87955
0.225 0.01 -0.00947495 0.000110094 -2.33873e-05 1.92048
0.23 0.01 -0.00969802 0.000117299 -2.39563e-05 1.9641
0.235 0.01 -0.00993435 0.000124075 -2.45603e-05 2.01023
0.24 0.01 -0.0101831 0.000130455 -2.51971e-05 2.05872
0.245 0.01 -0.0104435 0.000136461 -2.58648e-05 2.1094
0.25 0.01 -0.0107149 0.000142114 -2.65616e-05 2.16213
0.255 0.01 -0.0109965 0.000147428 -2.72859e-05 2.21675
0.26 0.01 -0.0112876 0.000152413 -2.80359e-05 2.27314
0.265 0.01 -0.0115877 0.000157076 -2.881e-05 2.33117
0.27 0.01 -0.011896 0.000161423 -2.96067e-05 2.39069
0.275 0.01 -0.0122119 0.000165455 -3.04243e-05 2.45158
0.28 0.01 -0.0125348 0.000169173 -3.12612e-05 2.51372
0.285 0.01 -0.012864 0.000172576 -3.2116e-05 2.57697
0.29 0.01 -0.013199 0.00017566 -3.2987e-05 2.64121
0.295 0.01 -0.013539 0.000178423 -3.38726e-05 2.70631
0.3 0.01 -0.0138835 0.000180858 -3.47713e-05 2.77214
0.305 0.01 -0.0142317 0.000182962 -3.56813e-05 2.83857
0.31 0.01 -0.0145831 0.000184728 -3.66009e-05 2.90547
0.315 0.01 -0.0149369 0.000186151 -3.75286e-05 2.97271
0.32 0.01 -0.0152924 0.000187224 -3.84625e-05 3.04016
0.325 0.01 -0.0156491 0.00018794 -3.94009e-05 3.10767
0.33 0.01 -0.0160061 0.000188295 -4.0342e-05 3.17512
0.335 0.01 -0.0163628 0.000188282 -4.12839e-05 3.24236
0.34 0.01 -0.0167184 0.000187895 -4.22249e-05 3.30927
0.345 0.01 -0.0170723 0.000187129 -4.3163e-05 3.37569
0.35 0.01 -0.0174236 0.00018598 -4.40963e-05 3.44149
0.355 0.01 -0.0177718 0.000184443 -4.50229e-05 3.50653
0.36 0.01 -0.0181159 0.000182516 -4.59409e-05 3.57067
0.365 0.01 -0.0184553 0.000180195 -4.68482e-05 3.63377
0.37 0.01 -0.0187893 0.000177479 -4.7743e-05 3.69569
0.375 0.01 -0.019117 0.000174366 -4.86232e-05 3.75629
0.38 0.01 -0.0194378 0.000170856 -4.94868e-05 3.81543
0.385 0.01 -0.0197508 0.000166951 -5.03319e-05 3.87297
0.39 0.01 -0.0200555 0.000162652 -5.11565e-05 3.92878
0.395 0.01 -0.020351 0.000157961 -5.19586e-05 3.98273
0.4 0.01 -0.0206366 0.000152884 -5.27363e-05 4.03469
0.405 0.01 -0.0209116 0.000147424 -5.34876e-05 4.08451
0.41 0.01 -0.0211754 0.000141588 -5.42108e-05 4.13209
0.415 0.01 -0.0214272 0.000135384 -5.49038e-05 4.1773
0.42 0.01 -0.0216664 0.000128819 -5.55648e-05 4.22002
0.425 0.01 -0.0218923 0.000121903 -5.61922e-05 4.26014
0.43 0.01 -0.0221044 0.000114647 -5.67841e-05 4.29754
0.435 0.01 -0.0223019 0.000107063 -5.73389e-05 4.33212
0.44 0.01 -0.0224845 9.9164e-05 -5.7855e-05 4.36379
0.445 0.01 -0.0226514 9.09637e-05 -5.83309e-05 4.39244
0.45 0.01 -0.0228023 8.24776e-05 -5.8765e-05 4.41799
0.455 0.01 -0.0229365 7.37221e-05 -5.91559e-05 4.44036
0.46 0.01 -0.0230537 6.47145e-05 -5.95025e-05 4.45947
0.465 0.01 -0.0231535 5.54732e-05 -5.98034e-05 4.47525
0.47 0.01 -0.0232354 4.60177e-05 -6.00576e-05 4.48764
0.475 0.01 -0.0232991 3.63684e-05 -6.02639e-05 4.49659
0.48 0.01 -0.0233443 2.65463e-05 -6.04216e-05 4.50204
0.485 0.01 -0.0233708 1.65737e-05 -6.05297e-05 4.50395
0.49 0.01 -0.0233783 6.47331e-06 -6.05877e-05 4.5023
0.495 0.01 -0.0233667 -3.73129e-06 -6.05948e-05 4.49707
0.5 0.01 -0.0233358 -1.40159e-05 -6.05507e-05 4.48822
0.505 0.01 -0.0232856 -2.43559e-05 -6.04551e-05 4.47576
0.51 0.01 -0.0232159 -3.47259e-05 -6.03076e-05 4.45969
0.515 0.01 -0.0231268 -4.51004e-05 -6.01082e-05 4.44001
0.52 0.01 -0.0230184 -5.54535e-05 -5.98569e-05 4.41675
0.525 0.01 -0.0228907 -6.57589e-05 -5.9554e-05 4.38993
0.53 0.01 -0.022744 -7.59906e-05 -5.91998e-05 4.35958
0.535 0.01 -0.0225783 -8.61222e-05 -5.87945e-05 4.32574
0.54 0.01 -0.0223939 -9.61275e-05 -5.83389e-05 4.28847
0.545 0.01 -0.0221912 -0.00010598 -5.78337e-05 4.24783
0.55 0.01 -0.0219704 -0.000115655 -5.72795e-05 4.20389
0.555 0.01 -0.0217319 -0.000125127 -5.66775e-05 4.15671
0.56 0.01 -0.0214762 -0.000134371 -5.60287e-05 4.10638
0.565 0.01 -0.0212037 -0.000143362 -5.53342e-05 4.053
0.57 0.01 -0.020915 -0.000152078 -5.45955e-05 3.99666
0.575 0.01 -0.0206105 -0.000160495 -5.38138e-05 3.93747
0.58 0.01 -0.020291 -0.000168592 -5.29909e-05 3.87554
0.585 0.01 -0.0199569 -0.000176349 -5.21283e-05 3.81098
0.59 0.01 -0.0196089 -0.000183745 -5.12278e-05 3.74392
0.595 0.01 -0.0192479 -0.000190762 -5.02913e-05 3.67449
0.6 0.01 -0.0188744 -0.000197384 -4.93206e-05 3.60282
0.605 0.01 -0.0184892 -0.000203594 -4.83178e-05 3.52906
0.61 0.01 -0.0180931 -0.000209379 -4.7285e-05 3.45335
0.615 0.01 -0.017687 -0.000214726 -4.62244e-05 3.37583
0.62 0.01 -0.0172716 -0.000219623 -4.51381e-05 3.29665
0.625 0.01 -0.0168477 -0.000224062 -4.40285e-05 3.21598
0.63 0.01 -0.0164163 -0.000228034 -4.28979e-05 3.13396
0.635 0.01 -0.0159782 -0.000231534 -4.17485e-05 3.05075
0.64 0.01 -0.0155342 -0.000234557 -4.05829e-05 2.96652
0.645 0.01 -0.0150853 -0.000237101 -3.94033e-05 2.88142
0.65 0.01 -0.0146324 -0.000239165 -3.82122e-05 2.79561
0.655 0.01 -0.0141762 -0.00024075 -3.7012e-05 2.70926
0.66 0.01 -0.0137177 -0.000241858 -3.5805e-05 2.62251
0.665 0.01 -0.0132578 -0.000242494 -3.45937e-05 2.53554
0.67 0.01 -0.0127972 -0.000242665 -3.33803e-05 2.44849
0.675 0.01 -0.012337 -0.000242377 -3.21673e-05 2.36151
0.68 0.01 -0.0118778 -0.00024164 -3.09568e-05 2.27477
0.685 0.01 -0.0114205 -0.000240465 -2.97511e-05 2.1884
0.69 0.01 -0.0109659 -0.000238864 -2.85524e-05 2.10254
0.695 0.01 -0.0105148 -0.000236851 -2.73627e-05 2.01735
0.7 0.01 -0.0100679 -0.00023444 -2.61841e-05 1.93295
0.705 0.01 -0.00962587 -0.000231647 -2.50185e-05 1.84947
0.71 0.01 -0.00918948 -0.000228489 -2.38678e-05 1.76704
0.715 0.01 -0.00875934 -0.000224984 -2.27338e-05 1.68577
0.72 0.01 -0.00833609 -0.000221151 -2.16182e-05 1.60579
0.725 0.01 -0.0079203 -0.000217009 -2.05225e-05 1.52719
0.73 0.01 -0.00751253 -0.000212579 -1.94482e-05 1.45007
0.735 0.01 -0.00711328 -0.000207881 -1.83968e-05 1.37454
0.74 0.01 -0.00672305 -0.000202936 -1.73695e-05 1.30067
0.745 0.01 -0.00634226 -0.000197765 -1.63676e-05 1.22856
0.75 0.01 -0.00597132 -0.00019239 -1.5392e-05 1.15826
0.755 0.01 -0.00561058 -0.000186832 -1.44438e-05 1.08986
0.76 0.01 -0.00526037 -0.000181112 -1.35238e-05 1.02341
0.765 0.01 -0.00492098 -0.000175251 -1.26327e-05 0.958962
0.77 0.01 -0.00459265 -0.000169271 -1.17713e-05 0.896564
0.775 0.01 -0.00427559 -0.000163192 -1.09401e-05 0.836256
0.78 0.01 -0.00396997 -0.000157034 -1.01395e-05 0.778072
0.785 0.01 -0.00367593 -0.000150816 -9.3698e-06 0.722037
0.79 0.01 -0.00339356 -0.000144558 -8.63134e-06 0.668173
0.795 0.01 -0.00312294 -0.000138277 -7.92425e-06 0.616494
0.8 0.01 -0.00286409 -0.000131991 -7.2486e-06 0.567007
0.805 0.01 -0.00261703 -0.000125716 -6.60437e-06 0.519716
0.81 0.01 -0.00238172 -0.000119469 -5.99146e-06 0.474618
0.815 0.01 -0.00215811 -0.000113263 -5.40969e-06 0.431704
0.82 0.01 -0.00194611 -0.000107114 -4.85882e-06 0.390962
0.825 0.01 -0.00174562 -0.000101035 -4.33854e-06 0.352375
0.83 0.01 -0.00155651 -9.5036e-05 -3.84847e-06 0.315919
0.835 0.01 -0.00137863 -8.91296e-05 -3.38818e-06 0.281569
0.84 0.01 -0.0012118 -8.33257e-05 -2.95717e-06 0.249295
0.845 0.01 -0.00105582 -7.76334e-05 -2.5549e-06 0.219064
0.85 0.01 -0.000910505 -7.20608e-05 -2.18081e-06 0.190839
0.855 0.01 -0.000775616 -6.66155e-05 -1.83428e-06 0.16458
0.86 0.01 -0.000650921 -6.13037e-05 -1.51464e-06 0.140246
0.865 0.01 -0.000536172 -5.61311e-05 -1.22121e-06 0.117791
0.87 0.01 -0.000431109 -5.11025e-05 -9.53301e-07 0.09717
0.875 0.01 -0.000335464 -4.6222e-05 -7.10164e-07 0.0783329
0.88 0.01 -0.000248961 -4.14931e-05 -4.91054e-07 0.0612298
0.885 0.01 -0.000171316 -3.69187e-05 -2.95206e-07 0.0458088
0.89 0.01 -0.000102241 -3.25012e-05 -1.21841e-07 0.0320164
0.895 0.01 -4.14407e-05 -2.82429e-05 2.98324e-08 0.0197979
0.9 0.01 1.13861e-05 -2.41457e-05 1.60614e-07 0.00909728
0.905 0.01 5.65444e-05 -2.02117e-05 2.71315e-07 -0.000142817
0.91 0.01 9.43452e-05 -1.64432e-05 3.62756e-07 -0.0079812
0.915 0.01 0.000125106 -1.28429e-05 4.3577e-07 -0.0144783
0.92 0.01 0.000149151 -9.41447e-06 4.91207e-07 -0.0196963
0.925 0.01 0.000166817 -6.16291e-06 5.29936e-07 -0.0237
0.93 0.01 0.000178449 -3.09488e-06 5.52855e-07 -0.0265568
0.935 0.01 0.000184412 -2.19551e-07 5.60902e-07 -0.0283378
0.94 0.01 0.000185091 2.45062e-06 5.55066e-07 -0.0291187
0.945 0.01 0.0001809 4.89877e-06 5.3641e-07 -0.0289812
0.95 0.01 0.00017229 7.10216e-06 5.06091e-07 -0.0280142
0.955 0.01 0.000159761 9.03022e-06 4.65399e-07 -0.0263164
0.96 0.01 0.000143874 1.0642e-05 4.15797e-07 -0.0239979
0.965 0.01 0.000125276 1.18823e-05 3.58986e-07 -0.021184
0.97 0.01 0.000104714 1.26774e-05 2.96979e-07 -0.0180174
0.975 0.01 8.30736e-05 1.29284e-05 2.32215e-07 -0.0146622
0.98 0.01 6.14021e-05 1.25051e-05 1.67697e-07 -0.0113047
0.985 0.01 4.09451e-05 1.12442e-05 1.07166e-07 -0.00814981
0.99 0.01 2.31513e-05 8.97329e-06 5.52559e-08 -0.00540359
0.995 0.01 9.60462e-06 5.63319e-06 1.74326e-08 -0.00321987
1 0.01 1.73895e-06 1.74326e-06 -1.07617e-09 -0.00156509
0 0.015 0 0 -0.00139116 0
0.005 0.015 0 0 0 -255.985
0.01 0.015 -0.152791 0.18475 -0.00180018 -79.2857
0.015 0.015 -0.206067 -0.0238407 -0.0018475 -16.6489
0.02 0.015 -0.204327 -0.0574479 -0.00156178 2.33507
0.025 0.015 -0.184313 -0.0522425 -0.00127302 7.97057
0.03 0.015 -0.160914 -0.0414773 -0.00103935 9.30984
0.035 0.015 -0.139117 -0.0321775 -0.000858246 9.18919
0.04 0.015 -0.120185 -0.0251566 -0.000717576 8.58035
0.045 0.015 -0.104123 -0.019978 -0.00060668 7.83841
0.05 0.015 -0.0905819 -0.0161173 -0.000517796 7.09691
0.055 0.015 -0.0791609 -0.0131778 -0.000445507 6.40495
0.06 0.015 -0.0695032 -0.0108891 -0.000386018 5.77818
0.065 0.015 -0.0613119 -0.00907119 -0.000336615 5.21879
0.07 0.015 -0.0543455 -0.0076029 -0.000295306 4.72358
0.075 0.015 -0.0484079 -0.00640101 -0.000260586 4.2874
0.08 0.015 -0.0433393 -0.00540669 -0.000231295 3.90459
0.085 0.015 -0.039008 -0.00457715 -0.000206519 3.56959
0.09 0.015 -0.0353051 -0.00388041 -0.000185523 3.27721
0.095 0.015 -0.0321396 -0.00329197 -0.000167714 3.02271
0.1 0.015 -0.0294354 -0.00279266 -0.000152603 2.80181
0.105 0.015 -0.0271281 -0.00236726 -0.000139787 2.61069
0.11 0.015 -0.0251632 -0.00200348 -0.00012893 2.44594
0.115 0.015 -0.0234947 -0.00169131 -0.000119752 2.30456
0.12 0.015 -0.0220832 -0.00142252 -0.000112017 2.18389
0.125 0.015 -0.0208953 -0.0011903 -0.000105526 2.08157
0.13 0.015 -0.0199024 -0.000988994 -0.000100113 1.99556
0.135 0.015 -0.0190801 -0.000813862 -9.56359e-05 1.92403
0.14 0.015 -0.0184075 -0.000660944 -9.19742e-05 1.86539
0.145 0.015 -0.0178667 -0.000526912 -8.90261e-05 1.81826
0.15 0.015 -0.0174423 -0.000408962 -8.67047e-05 1.7814
0.155 0.015 -0.0171211 -0.00030473 -8.49361e-05 1.75375
0.16 0.015 -0.0168917 -0.000212217 -8.36571e-05 1.73437
0.165 0.015 -0.0167443 -0.000129736 -8.28136e-05 1.72243
0.17 0.015 -0.0166706 -5.58573e-05 -8.23594e-05 1.71721
0.175 0.015 -0.0166632 1.0628e-05 -8.22547e-05 1.71808
0.18 0.015 -0.0167157 7.07441e-05 -8.24654e-05 1.72448
0.185 0.015 -0.0168227 0.000125358 -8.29619e-05 1.73592
0.19 0.015 -0.0169794 0.000175202 -8.37187e-05 1.75196
0.195 0.015 -0.0171817 0.000220896 -8.47137e-05 1.77221
0.2 0.015 -0.0174257 0.000262962 -8.59274e-05 1.79633
0.205 0.015 -0.0177083 0.00030184 -8.73431e-05 1.82402
0.21 0.015 -0.0180266 0.000337901 -8.89457e-05 1.85499
0.215 0.015 -0.0183781 0.000371453 -9.07219e-05 1.889
0.22 0.015 -0.0187603 0.000402754 -9.266e-05 1.92582
0.225 0.015 -0.0191713 0.000432019 -9.47493e-05 1.96524
0.23 0.015 -0.0196092 0.000459424 -9.69801e-05 2.00707
0.235 0.015 -0.020072 0.000485113 -9.93434e-05 2.05113
0.24 0.015 -0.0205583 0.000509205 -0.000101831 2.09725
0.245 0.015 -0.0210664 0.000531791 -0.000104435 2.14527
0.25 0.015 -0.0215949 0.000552948 -0.000107149 2.19505
0.255 0.015 -0.0221423 0.00057273 -0.000109965 2.24644
0.26 0.015 -0.0227074 0.000591181 -0.000112876 2.2993
0.265 0.015 -0.0232888 0.000608331 -0.000115877 2.35348
0.27 0.015 -0.0238851 0.000624199 -0.00011896 2.40887
0.275 0.015 -0.0244952 0.000638798 -0.000122119 2.46533
0.28 0.015 -0.0251177 0.000652131 -0.000125348 2.52272
0.285 0.015 -0.0257514 0.000664196 -0.00012864 2.58093
0.29 0.015 -0.026395 0.000674986 -0.00013199 2.63981
0.295 0.015 -0.0270472 0.00068449 -0.00013539 2.69926
0.3 0.015 -0.0277068 0.000692696 -0.000138835 2.75913
0.305 0.015 -0.0283723 0.000699586 -0.000142317 2.8193
0.31 0.015 -0.0290427 0.000705143 -0.000145831 2.87965
0.315 0.015 -0.0297164 0.000709349 -0.000149369 2.94004
0.32 0.015 -0.0303923 0.000712185 -0.000152925 3.00036
0.325 0.015 -0.0310688 0.000713632 -0.000156491 3.06046
0.33 0.015 -0.0317448 0.000713671 -0.000160061 3.12023
0.335 0.015 -0.0324188 0.000712286 -0.000163628 3.17954
0.34 0.015 -0.0330894 0.00070946 -0.000167185 3.23825
0.345 0.015 -0.0337552 0.00070518 -0.000170723 3.29625
0.35 0.015 -0.0344149 0.000699433 -0.000174237 3.3534
0.355 0.015 -0.035067 0.000692208 -0.000177718 3.40959
0.36 0.015 -0.0357102 0.0006835 -0.000181159 3.46467
0.365 0.015 -0.036343 0.000673304 -0.000184554 3.51855
0.37 0.015 -0.036964 0.000661618 -0.000187893 3.57108
0.375 0.015 -0.0375718 0.000648444 -0.00019117 3.62215
0.38 0.015 -0.0381651 0.000633787 -0.000194378 3.67164
0.385 0.015 -0.0387425 0.000617657 -0.000197509 3.71945
0.39 0.015 -0.0393026 0.000600066 -0.000200556 3.76544
0.395 0.015 -0.0398441 0.000581029 -0.000203511 3.80952
0.4 0.015 -0.0403657 0.000560569 -0.000206367 3.85158
0.405 0.015 -0.040866 0.000538709 -0.000209117 3.89152
0.41 0.015 -0.0413438 0.000515476 -0.000211755 3.92922
0.415 0.015 -0.041798 0.000490904 -0.000214273 3.96461
0.42 0.015 -0.0422272 0.00046503 -0.000216665 3.99759
0.425 0.015 -0.0426305 0.000437893 -0.000218924 4.02806
0.43 0.015 -0.0430065 0.000409538 -0.000221045 4.05596
0.435 0.015 -0.0433544 0.000380014 -0.00022302 4.08119
0.44 0.015 -0.0436731 0.000349373 -0.000224846 4.1037
0.445 0.015 -0.0439616 0.000317672 -0.000226515 4.12341
0.45 0.015 -0.0442191 0.000284972 -0.000228024 4.14026
0.455 0.015 -0.0444447 0.000251336 -0.000229366 4.1542
0.46 0.015 -0.0446376 0.000216832 -0.000230538 4.16518
0.465 0.015 -0.0447973 0.00018153 -0.000231536 4.17315
0.47 0.015 -0.0449229 0.000145506 -0.000232355 4.17808
0.475 0.015 -0.0450141 0.000108836 -0.000232992 4.17994
0.48 0.015 -0.0450702 7.16007e-05 -0.000233445 4.1787
0.485 0.015 -0.0450909 3.38828e-05 -0.00023371 4.17435
0.49 0.015 -0.0450758 -4.23226e-06 -0.000233785 4.16687
0.495 0.015 -0.0450248 -4.2657e-05 -0.000233669 4.15627
0.5 0.015 -0.0449376 -8.13021e-05 -0.00023336 4.14254
0.505 0.015 -0.0448141 -0.000120076 -0.000232857 4.12569
0.51 0.015 -0.0446544 -0.000158887 -0.00023216 4.10575
0.515 0.015 -0.0444586 -0.000197641 -0.00023127 4.08273
0.52 0.015 -0.0442267 -0.000236244 -0.000230186 4.05666
0.525 0.015 -0.0439591 -0.000274601 -0.000228909 4.02758
0.53 0.015 -0.0436561 -0.000312618 -0.000227441 3.99553
0.535 0.015 -0.0433181 -0.000350199 -0.000225784 3.96056
0.54 0.015 -0.0429456 -0.000387251 -0.000223941 3.92273
0.545 0.015 -0.0425393 -0.000423681 -0.000221913 3.8821
0.55 0.015 -0.0420998 -0.000459397 -0.000219705 3.83874
0.555 0.015 -0.0416278 -0.00049431 -0.000217321 3.79271
0.56 0.015 -0.0411241 -0.000528331 -0.000214764 3.7441
0.565 0.015 -0.0405898 -0.000561375 -0.000212039 3.693
0.57 0.015 -0.0400257 -0.000593359 -0.000209152 3.63948
0.575 0.015 -0.039433 -0.000624205 -0.000206107 3.58365
0.58 0.015 -0.0388127 -0.000653834 -0.000202911 3.52561
0.585 0.015 -0.038166 -0.000682177 -0.00019957 3.46546
0.59 0.015 -0.0374941 -0.000709163 -0.000196091 3.40331
0.595 0.015 -0.0367984 -0.000734731 -0.00019248 3.33927
0.6 0.015 -0.0360803 -0.00075882 -0.000188745 3.27345
0.605 0.015 -0.035341 -0.000781377 -0.000184893 3.20597
0.61 0.015 -0.0345821 -0.000802353 -0.000180933 3.13696
0.615 0.015 -0.033805 -0.000821704 -0.000176871 3.06653
0.62 0.015 -0.0330113 -0.000839394 -0.000172717 2.99481
0.625 0.015 -0.0322025 -0.000855391 -0.000168479 2.92194
0.63 0.015 -0.0313802 -0.000869668 -0.000164164 2.84803
0.635 0.015 -0.0305459 -0.000882206 -0.000159783 2.77322
0.64 0.015 -0.0297013 -0.000892991 -0.000155344 2.69763
0.645 0.015 -0.0288479 -0.000902016 -0.000150855 2.62141
0.65 0.015 -0.0279874 -0.000909279 -0.000146325 2.54467
0.655 0.015 -0.0271215 -0.000914786 -0.000141763 2.46755
0.66 0.015 -0.0262515 -0.000918547 -0.000137178 2.39017
0.665 0.015 -0.0253793 -0.00092058 -0.000132579 2.31267
0.67 0.015 -0.0245063 -0.000920906 -0.000127973 2.23517
0.675 0.015 -0.0236341 -0.000919555 -0.000123371 2.15779
0.68 0.015 -0.0227642 -0.000916561 -0.000118779 2.08066
0.685 0.015 -0.021898 -0.000911962 -0.000114206 2.00389
0.69 0.015 -0.0210371 -0.000905803 -0.00010966 1.9276
0.695 0.015 -0.0201828 -0.000898132 -0.000105149 1.8519
0.7 0.015 -0.0193365 -0.000889004 -0.00010068 1.77691
0.705 0.015 -0.0184994 -0.000878476 -9.62595e-05 1.70272
0.71 0.015 -0.0176729 -0.000866608 -9.18955e-05 1.62944
0.715 0.015 -0.0168582 -0.000853465 -8.75941e-05 1.55717
0.72 0.015 -0.0160562 -0.000839116 -8.33616e-05 1.486
0.725 0.015 -0.0152683 -0.000823629 -7.92036e-05 1.41601
0.73 0.015 -0.0144953 -0.000807077 -7.51258e-05 1.3473
0.735 0.015 -0.0137382 -0.000789535 -7.11334e-05 1.27993
0.74 0.015 -0.0129978 -0.000771078 -6.7231e-05 1.21399
0.745 0.015 -0.0122751 -0.000751783 -6.34231e-05 1.14953
0.75 0.015 -0.0115707 -0.000731725 -5.97136e-05 1.08663
0.755 0.015 -0.0108853 -0.000710984 -5.61062e-05 1.02533
0.76 0.015 -0.0102195 -0.000689636 -5.26041e-05 0.965699
0.765 0.015 -0.00957387 -0.000667757 -4.92101e-05 0.907775
0.77 0.015 -0.00894884 -0.000645424 -4.59268e-05 0.8516
0.775 0.015 -0.00834481 -0.00062271 -4.27562e-05 0.797211
0.78 0.015 -0.00776212 -0.00059969 -3.96999e-05 0.744639
0.785 0.015 -0.00720103 -0.000576433 -3.67595e-05 0.693909
0.79 0.015 -0.00666175 -0.000553008 -3.39358e-05 0.645042
0.795 0.015 -0.00614441 -0.000529483 -3.12295e-05 0.598053
0.8 0.015 -0.00564909 -0.000505922 -2.8641e-05 0.552954
0.805 0.015 -0.00517582 -0.000482385 -2.61704e-05 0.509751
0.81 0.015 -0.00472457 -0.00045893 -2.38172e-05 0.468445
0.815 0.015 -0.00429525 -0.000435614 -2.15811e-05 0.429033
0.82 0.015 -0.00388772 -0.000412488 -1.94611e-05 0.391509
0.825 0.015 -0.00350181 -0.0003896 -1.74562e-05 0.355862
0.83 0.015 -0.0031373 -0.000366995 -1.55651e-05 0.322078