Title=" Lid Driven Flow"
VARIABLES="X","Y","U","V","psi","xi"
ZONE T= "BOX", I= 51, J=51, F=POINT
0 0 0 0 -34.4223 0
0.02 0 0 0 0 0
0.04 0 0 0 0 0
0.06 0 0 0 0 -92.5901
0.08 0 0 0 0 -84.9722
0.1 0 0 0 0 -78.2521
0.12 0 0 0 0 -72.4273
0.14 0 0 0 0 -67.3665
0.16 0 0 0 0 -62.9299
0.18 0 0 0 0 -58.9919
0.2 0 0 0 0 -55.4464
0.22 0 0 0 0 -52.2085
0.24 0 0 0 0 -49.2134
0.26 0 0 0 0 -46.4144
0.28 0 0 0 0 -43.78
0.3 0 0 0 0 -41.29
0.32 0 0 0 0 -38.9332
0.34 0 0 0 0 -36.7042
0.36 0 0 0 0 -34.6019
0.38 0 0 0 0 -32.6269
0.4 0 0 0 0 -30.781
0.42 0 0 0 0 -29.0658
0.44 0 0 0 0 -27.4824
0.46 0 0 0 0 -26.0305
0.48 0 0 0 0 -24.7094
0.5 0 0 0 0 -23.5158
0.52 0 0 0 0 -22.4475
0.54 0 0 0 0 -21.498
0.56 0 0 0 0 -20.6652
0.58 0 0 0 0 -19.9382
0.6 0 0 0 0 -19.3184
0.62 0 0 0 0 -18.7877
0.64 0 0 0 0 -18.3566
0.66 0 0 0 0 -17.9927
0.68 0 0 0 0 -17.7283
0.7 0 0 0 0 -17.4992
0.72 0 0 0 0 -17.3872
0.74 0 0 0 0 -17.2578
0.76 0 0 0 0 -17.3023
0.78 0 0 0 0 -17.2314
0.8 0 0 0 0 -17.4797
0.82 0 0 0 0 -17.4144
0.84 0 0 0 0 -18.0117
0.86 0 0 0 0 -17.8744
0.88 0 0 0 0 -19.1936
0.9 0 0 0 0 -18.8479
0.92 0 0 0 0 -21.8019
0.94 0 0 0 0 -20.9296
0.96 0 0 0 0 -27.7993
0.98 0 0 0 0 -25.35
1 0 0 0 0 -42.8714
0 0.02 0 0 0 0
0.02 0.02 0 0 0 0
0.04 0.02 0 0 0 -0.0163876
0.06 0.02 0 0 0 -0.0541731
0.08 0.02 0 0 0 -0.0954183
0.1 0.02 0 0 0 -0.128577
0.12 0.02 0 0 0 -0.148064
0.14 0.02 0 0 0 -0.152034
0.16 0.02 0 0 0 -0.140489
0.18 0.02 0 0 0 -0.113987
0.2 0.02 0 0 0 -0.0728616
0.22 0.02 0 0 0 -0.0168883
0.24 0.02 0 0 0 0.0547113
0.26 0.02 0 0 0 0.143025
0.28 0.02 0 0 0 0.249079
0.3 0.02 0 0 0 0.37344
0.32 0.02 0 0 0 0.515837
0.34 0.02 0 0 0 0.674847
0.36 0.02 0 0 0 0.847648
0.38 0.02 0 0 0 1.02985
0.4 0.02 0 0 0 1.21544
0.42 0.02 0 0 0 1.39687
0.44 0.02 0 0 0 1.56526
0.46 0.02 0 0 0 1.71087
0.48 0.02 0 0 0 1.82362
0.5 0.02 0 0 0 1.89385
0.52 0.02 0 0 0 1.91315
0.54 0.02 0 0 0 1.87526
0.56 0.02 0 0 0 1.77684
0.58 0.02 0 0 0 1.61823
0.6 0.02 0 0 0 1.40388
0.62 0.02 0 0 0 1.14242
0.64 0.02 0 0 0 0.846329
0.66 0.02 0 0 0 0.531163
0.68 0.02 0 0 0 0.214292
0.7 0.02 0 0 0 -0.0866293
0.72 0.02 0 0 0 -0.355346
0.74 0.02 0 0 0 -0.578574
0.76 0.02 0 0 0 -0.747227
0.78 0.02 0 0 0 -0.857086
0.8 0.02 0 0 0 -0.908819
0.82 0.02 0 0 0 -0.907365
0.84 0.02 0 0 0 -0.860814
0.86 0.02 0 0 0 -0.779028
0.88 0.02 0 0 0 -0.672263
0.9 0.02 0 0 0 -0.550082
0.92 0.02 0 0 0 -0.420864
0.94 0.02 0 0 0 -0.292206
0.96 0.02 0 0 0 -0.172463
0.98 0.02 0 0 0 -0.0732336
1 0.02 0 0 0 -0.0109332
0 0.04 0 0 -0.0109332 0
0.02 0.04 0 0 0 -0.0163876
0.04 0.04 0.000273714 -0.000270866 3.27819e-06 -0.0216819
0.06 0.04 0.000797573 -0.000395137 1.08371e-05 -0.0272988
0.08 0.04 0.00132792 -0.000371954 1.90884e-05 -0.0333004
0.1 0.04 0.00170677 -0.000263111 2.57219e-05 -0.0352244
0.12 0.04 0.00184876 -0.000117121 2.96207e-05 -0.0290036
0.14 0.04 0.00171702 3.80714e-05 3.04151e-05 -0.0118579
0.16 0.04 0.00130114 0.000190444 2.81061e-05 0.0179097
0.18 0.04 0.000600493 0.000338344 2.28049e-05 0.0613051
0.2 0.04 -0.000386118 0.00048568 1.45785e-05 0.118953
0.22 0.04 -0.00166504 0.000638018 3.38184e-06 0.19126
0.24 0.04 -0.00324724 0.00079967 -1.09407e-05 0.278421
0.26 0.04 -0.00514427 0.000971878 -2.86069e-05 0.380318
0.28 0.04 -0.00736215 0.00115203 -4.98222e-05 0.496325
0.3 0.04 -0.009895 0.00133363 -7.46997e-05 0.625101
0.32 0.04 -0.0127193 0.00150674 -0.000103186 0.764405
0.34 0.04 -0.0157896 0.0016586 -0.000134995 0.910983
0.36 0.04 -0.0190357 0.00177437 -0.000169564 1.06057
0.38 0.04 -0.0223624 0.0018381 -0.000206014 1.20799
0.4 0.04 -0.0256511 0.00183398 -0.000243143 1.34745
0.42 0.04 -0.0287639 0.00174774 -0.000279439 1.47283
0.44 0.04 -0.0315501 0.00156838 -0.000313129 1.57812
0.46 0.04 -0.0338547 0.00128987 -0.000342261 1.65788
0.48 0.04 -0.0355282 0.000912716 -0.00036482 1.7076
0.5 0.04 -0.0364377 0.000445265 -0.000378875 1.72407
0.52 0.04 -0.0364771 -9.55897e-05 -0.000382743 1.70552
0.54 0.04 -0.0355778 -0.000684391 -0.000375168 1.6518
0.56 0.04 -0.0337165 -0.00128803 -0.000355485 1.56425
0.58 0.04 -0.030922 -0.00186773 -0.000323763 1.44563
0.6 0.04 -0.0272774 -0.00238199 -0.000280888 1.29986
0.62 0.04 -0.0229197 -0.00279057 -0.000228588 1.13183
0.64 0.04 -0.0180341 -0.00305889 -0.00016936 0.947192
0.66 0.04 -0.0128443 -0.00316254 -0.000106314 0.75213
0.68 0.04 -0.00759776 -0.003091 -4.29259e-05 0.553249
0.7 0.04 -0.00254794 -0.00284988 1.72732e-05 0.357393
0.72 0.04 0.00206579 -0.00246104 7.10313e-05 0.17145
0.74 0.04 0.00603795 -0.00196035 0.000115691 0.00206956
0.76 0.04 0.00921404 -0.00139316 0.000149433 -0.144727
0.78 0.04 0.0115024 -0.000808261 0.000171415 -0.264001
0.8 0.04 0.0128788 -0.000251447 0.000181769 -0.352361
0.82 0.04 0.0133835 0.000240164 0.000181484 -0.408321
0.84 0.04 0.01311 0.000641947 0.000172176 -0.432463
0.86 0.04 0.0121897 0.000943087 0.00015582 -0.427351
0.88 0.04 0.0107728 0.00114508 0.000134466 -0.397234
0.9 0.04 0.00901312 0.00125733 0.000110028 -0.34765
0.92 0.04 0.0070574 0.00128968 8.41824e-05 -0.285112
0.94 0.04 0.00504728 0.00124224 5.84482e-05 -0.216952
0.96 0.04 0.0031336 0.00109504 3.44972e-05 -0.15114
0.98 0.04 0.0015004 0.000807764 1.46489e-05 -0.0952698
1 0.04 0.000378797 0.000366223 2.18715e-06 -0.0526366
0 0.06 0 0 -0.0757595 0
0.02 0.06 0 0 0 -0.0547427
0.04 0.06 0.000402372 -0.000797573 1.09511e-05 -0.0268831
0.06 0.06 0.00105404 -0.00105414 3.19109e-05 -0.000654328
0.08 0.06 0.00161624 -0.000909003 5.31308e-05 0.0237887
0.1 0.06 0.00187475 -0.000520486 6.82899e-05 0.0491178
0.12 0.06 0.00170379 -9.77105e-06 7.39719e-05 0.0788208
0.14 0.06 0.00103717 0.000548163 6.87028e-05 0.116209
0.16 0.06 -0.000156698 0.00111708 5.20651e-05 0.164011
0.18 0.06 -0.00189397 0.00168775 2.40347e-05 0.224206
0.2 0.06 -0.00418753 0.0022659 -1.54371e-05 0.297961
0.22 0.06 -0.00705148 0.00286132 -6.66036e-05 0.385592
0.24 0.06 -0.0104986 0.00347918 -0.000129905 0.486553
0.26 0.06 -0.0145331 0.00411453 -0.000205801 0.599427
0.28 0.06 -0.0191402 0.00474997 -0.000294535 0.721926
0.3 0.06 -0.0242769 0.00535592 -0.000395872 0.850906
0.32 0.06 -0.0298639 0.00589276 -0.000508871 0.982446
0.34 0.06 -0.0357817 0.00631391 -0.00063171 1.11202
0.36 0.06 -0.0418705 0.00656965 -0.000761586 1.23478
0.38 0.06 -0.0479344 0.00661146 -0.00089469 1.34596
0.4 0.06 -0.0537492 0.00639669 -0.00102627 1.4413
0.42 0.06 -0.0590745 0.00589329 -0.00115082 1.51742
0.44 0.06 -0.0636671 0.00508417 -0.0012623 1.57214
0.46 0.06 -0.0672953 0.00397065 -0.00135452 1.60453
0.48 0.06 -0.0697535 0.00257472 -0.00142149 1.61494
0.5 0.06 -0.0708748 0.000939925 -0.00145789 1.60471
0.52 0.06 -0.0705419 -0.000869403 -0.00145948 1.57588
0.54 0.06 -0.0686952 -0.00277045 -0.00142351 1.53084
0.56 0.06 -0.0653391 -0.00466584 -0.00134907 1.47192
0.58 0.06 -0.0605447 -0.00644922 -0.00123728 1.40117
0.6 0.06 -0.0544503 -0.00801223 -0.00109148 1.32011
0.62 0.06 -0.0472591 -0.0092528 -0.000917143 1.22975
0.64 0.06 -0.0392322 -0.0100843 -0.000721687 1.13066
0.66 0.06 -0.0306792 -0.0104444 -0.000514056 1.02314
0.68 0.06 -0.0219435 -0.0103035 -0.000304151 0.907609
0.7 0.06 -0.0133837 -0.00966956 -0.000102112 0.784869
0.72 0.06 -0.00535155 -0.00859076 8.24825e-05 0.65649
0.74 0.06 0.00183201 -0.00715197 0.000241412 0.525025
0.76 0.06 0.00790087 -0.00546706 0.000368495 0.394078
0.78 0.06 0.012664 -0.00366644 0.000460062 0.268154
0.8 0.06 0.0160196 -0.00188191 0.000515147 0.152271
0.82 0.06 0.0179596 -0.000231345 0.000535353 0.0513658
0.84 0.06 0.0185651 0.00119418 0.000524428 -0.0303919
0.86 0.06 0.0179907 0.00233787 0.00048762 -0.0902773
0.88 0.06 0.0164437 0.00317738 0.000430949 -0.127549
0.9 0.06 0.0141613 0.00371633 0.000360558 -0.143788
0.92 0.06 0.011392 0.00396667 0.000282324 -0.142991
0.94 0.06 0.00839005 0.00392451 0.000201913 -0.131289
0.96 0.06 0.00542247 0.00354743 0.000125359 -0.115973
0.98 0.06 0.00278903 0.00275517 6.00235e-05 -0.103196
1 0.06 0.000841582 0.00150059 1.51541e-05 -0.0936204
0 0.08 0 0 -0.179252 0
0.02 0.08 0 0 0 -0.0968655
0.04 0.08 0.000369952 -0.00132497 1.93779e-05 -0.0304798
0.06 0.08 0.000851774 -0.001609 5.3013e-05 0.0276105
0.08 0.08 0.00107833 -0.00119247 8.37617e-05 0.0798307
0.1 0.08 0.000826653 -0.000350268 0.000100743 0.129503
0.12 0.08 -3.9015e-05 0.000721029 9.78061e-05 0.180525
0.14 0.08 -0.0016006 0.0018992 7.19329e-05 0.236808
0.16 0.08 -0.00390864 0.00312217 2.18613e-05 0.301759
0.18 0.08 -0.00699741 0.0043696 -5.29443e-05 0.377849
0.2 0.08 -0.0108928 0.00564333 -0.000152932 0.466286
0.22 0.08 -0.0156129 0.00694886 -0.000278712 0.566842
0.24 0.08 -0.0211612 0.00828048 -0.000430952 0.67786
0.26 0.08 -0.0275164 0.00961196 -0.000610034 0.796414
0.28 0.08 -0.0346199 0.0108935 -0.000815578 0.918581
0.3 0.08 -0.0423666 0.012054 -0.00104597 1.03979
0.32 0.08 -0.0506003 0.0130073 -0.00129799 1.15524
0.34 0.08 -0.0591144 0.0136598 -0.00156658 1.26037
0.36 0.08 -0.0676595 0.0139202 -0.00184477 1.35135
0.38 0.08 -0.0759556 0.0137085 -0.00212384 1.42555
0.4 0.08 -0.083708 0.0129645 -0.00239363 1.48176
0.42 0.08 -0.0906238 0.0116546 -0.002643 1.52029
0.44 0.08 -0.0964288 0.00977676 -0.00286045 1.54275
0.46 0.08 -0.100881 0.00736266 -0.00303477 1.55169
0.48 0.08 -0.103779 0.00447752 -0.0031557 1.55012
0.5 0.08 -0.104975 0.00121796 -0.00321464 1.541
0.52 0.08 -0.104374 -0.00229165 -0.00320522 1.52685
0.54 0.08 -0.101939 -0.00590417 -0.00312378 1.50943
0.56 0.08 -0.0976926 -0.00945586 -0.00296985 1.48955
0.58 0.08 -0.0917196 -0.0127737 -0.00274633 1.46704
0.6 0.08 -0.0841661 -0.0156846 -0.00245965 1.44083
0.62 0.08 -0.0752402 -0.0180251 -0.00211965 1.40908
0.64 0.08 -0.0652096 -0.0196543 -0.00173929 1.36947
0.66 0.08 -0.0543973 -0.0204657 -0.00133406 1.31949
0.68 0.08 -0.0431714 -0.0203996 -0.000921162 1.25676
0.7 0.08 -0.0319315 -0.0194533 -0.000518487 1.17948
0.72 0.08 -0.0210885 -0.0176865 -0.000143361 1.08679
0.74 0.08 -0.0110403 -0.0152207 0.000188722 0.979092
0.76 0.08 -0.00214464 -0.0122314 0.000465294 0.858351
0.78 0.08 0.00530796 -0.00893144 0.000677869 0.72812
0.8 0.08 0.0111166 -0.00554999 0.0008225 0.593406
0.82 0.08 0.0151852 -0.00230696 0.00089986 0.460245
0.84 0.08 0.0175271 0.000610349 0.000914802 0.335008
0.86 0.08 0.0182581 0.00306465 0.000875489 0.223513
0.88 0.08 0.0175803 0.00497525 0.000792267 0.130033
0.9 0.08 0.0157587 0.00631007 0.000676531 0.0563669
0.92 0.08 0.0130988 0.00706202 0.000539911 0.00117993
0.94 0.08 0.00993127 0.00721287 0.000394088 -0.0400649
0.96 0.08 0.00660859 0.00669694 0.000251422 -0.0741695
0.98 0.08 0.00351836 0.00538929 0.000126224 -0.107895
1 0.08 0.00111583 0.00315561 3.5855e-05 -0.144377
0 0.1 0 0 -0.298936 0
0.02 0.1 0 0 0 -0.128746
0.04 0.1 0.000214414 -0.00164955 2.5756e-05 -0.0257378
0.06 0.1 0.000281419 -0.0017627 6.60011e-05 0.0617615
0.08 0.1 -0.000128956 -0.000883874 9.62951e-05 0.13867
0.1 0.1 -0.00121226 0.000597094 0.000101394 0.209726
0.12 0.1 -0.00309346 0.00241788 7.24488e-05 0.279675
0.14 0.1 -0.00585947 0.00441823 4.70703e-06 0.353
0.16 0.1 -0.0095749 0.00651422 -0.000104271 0.433443
0.18 0.1 -0.0142888 0.00867197 -0.00025588 0.52345
0.2 0.1 -0.0200349 0.0108809 -0.000451206 0.623707
0.22 0.1 -0.0268256 0.0131287 -0.000691222 0.732936
0.24 0.1 -0.0346408 0.0153809 -0.000976515 0.848044
0.26 0.1 -0.043415 0.0175704 -0.00130669 0.964593
0.28 0.1 -0.0530272 0.0195963 -0.00167964 1.07747
0.3 0.1 -0.0632958 0.0213311 -0.00209093 1.1816
0.32 0.1 -0.0739822 0.0226338 -0.00253337 1.27269
0.34 0.1 -0.0848012 0.0233648 -0.00299688 1.34778
0.36 0.1 -0.0954372 0.0234009 -0.00346866 1.40561
0.38 0.1 -0.105564 0.0226483 -0.00393371 1.44678
0.4 0.1 -0.114864 0.0210516 -0.00437549 1.47347
0.42 0.1 -0.123041 0.0185992 -0.00477676 1.48898
0.44 0.1 -0.129838 0.0153244 -0.00512053 1.49714
0.46 0.1 -0.135036 0.0113032 -0.00539088 1.50169
0.48 0.1 -0.138464 0.00665043 -0.00557386 1.50583
0.5 0.1 -0.139993 0.00151466 -0.00565815 1.51189
0.52 0.1 -0.139542 -0.00392691 -0.00563572 1.52116
0.54 0.1 -0.137072 -0.00947367 -0.00550235 1.53388
0.56 0.1 -0.132593 -0.0149072 -0.00525804 1.54927
0.58 0.1 -0.126165 -0.019998 -0.0049073 1.56562
0.6 0.1 -0.117901 -0.0245138 -0.00445931 1.58041
0.62 0.1 -0.107974 -0.0282309 -0.00392787 1.59047
0.64 0.1 -0.0966216 -0.0309481 -0.00333111 1.59217
0.66 0.1 -0.0841477 -0.0325026 -0.00269088 1.58163
0.68 0.1 -0.0709183 -0.0327878 -0.00203183 1.55511
0.7 0.1 -0.0573529 -0.0317693 -0.00138007 1.50935
0.72 0.1 -0.0439071 -0.0294968 -0.000761635 1.442
0.74 0.1 -0.0310479 -0.0261086 -0.000200656 1.35209
0.76 0.1 -0.0192224 -0.0218259 0.00028237 1.24033
0.78 0.1 -0.00882499 -0.016936 0.000672147 1.10934
0.8 0.1 -0.000165279 -0.0117653 0.000959669 0.963603
0.82 0.1 0.00655613 -0.00664604 0.00114269 0.809215
0.84 0.1 0.0112621 -0.00188132 0.0012255 0.653309
0.86 0.1 0.0140004 0.0022834 0.00121797 0.503206
0.88 0.1 0.0149338 0.00567667 0.00113421 0.365313
0.9 0.1 0.0143197 0.00819838 0.000990966 0.243874
0.92 0.1 0.012487 0.00979506 0.000806336 0.139838
0.94 0.1 0.00981377 0.0104159 0.000599213 0.0502446
0.96 0.1 0.00671684 0.00996137 0.000389737 -0.0313313
0.98 0.1 0.00365803 0.00824876 0.000200778 -0.112958
1 0.1 0.00118101 0.00501944 5.97937e-05 -0.201397
0 0.12 0 0 -0.415476 0
0.02 0.12 0 0 0 -0.139772
0.04 0.12 -3.91343e-05 -0.00160674 2.79626e-05 -0.00592599
0.06 0.12 -0.00059394 -0.00126602 6.42915e-05 0.105904
0.08 0.12 -0.00189505 0.00030097 7.86363e-05 0.203071
0.1 0.12 -0.00407673 0.00261421 5.22888e-05 0.291888
0.12 0.12 -0.00723707 0.00536837 -2.59039e-05 0.37789
0.14 0.12 -0.0114604 0.00838077 -0.000162439 0.465801
0.16 0.12 -0.0168201 0.0115514 -0.000361162 0.559184
0.18 0.12 -0.0233735 0.0148292 -0.000624573 0.659866
0.2 0.12 -0.031152 0.0181791 -0.00095447 0.767445
0.22 0.12 -0.0401486 0.0215529 -0.00135195 0.879204
0.24 0.12 -0.0503031 0.024867 -0.00181689 0.990582
0.26 0.12 -0.0614909 0.0279943 -0.00234705 1.09608
0.28 0.12 -0.0735184 0.0307689 -0.0029372 1.19034
0.3 0.12 -0.0861281 0.0330021 -0.00357847 1.26916
0.32 0.12 -0.0990126 0.034504 -0.00425808 1.33019
0.34 0.12 -0.111835 0.0351044 -0.00495956 1.37322
0.36 0.12 -0.124251 0.0346711 -0.00566333 1.40014
0.38 0.12 -0.135931 0.033121 -0.00634762 1.41437
0.4 0.12 -0.146572 0.030426 -0.00698951 1.42021
0.42 0.12 -0.155906 0.0266116 -0.00756611 1.42212
0.44 0.12 -0.163709 0.021753 -0.00805553 1.42413
0.46 0.12 -0.169793 0.0159683 -0.00843786 1.42951
0.48 0.12 -0.174004 0.00941278 -0.00869596 1.44058
0.5 0.12 -0.176222 0.00227305 -0.00881613 1.45878
0.52 0.12 -0.176358 -0.00523649 -0.00878866 1.48464
0.54 0.12 -0.174351 -0.0128769 -0.00860845 1.5179
0.56 0.12 -0.170174 -0.0203879 -0.00827536 1.55747
0.58 0.12 -0.163841 -0.0274919 -0.00779466 1.60147
0.6 0.12 -0.155409 -0.0339016 -0.00717734 1.64712
0.62 0.12 -0.144995 -0.0393297 -0.00644018 1.69079
0.64 0.12 -0.132784 -0.0435054 -0.00560563 1.72805
0.66 0.12 -0.119037 -0.0461934 -0.00470131 1.75382
0.68 0.12 -0.104098 -0.0472177 -0.0037591 1.76278
0.7 0.12 -0.0883899 -0.0464863 -0.00281365 1.74981
0.72 0.12 -0.0724054 -0.0440114 -0.00190053 1.71065
0.74 0.12 -0.0566791 -0.0399231 -0.00105391 1.64254
0.76 0.12 -0.041755 -0.0344695 -0.000304163 1.54478
0.78 0.12 -0.0281438 -0.0280013 0.000324457 1.41906
0.8 0.12 -0.0162799 -0.0209412 0.000815608 1.26949
0.82 0.12 -0.00648487 -0.0137419 0.00116194 1.10231
0.84 0.12 0.00105857 -0.00683922 0.0013652 0.925219
0.86 0.12 0.00631569 -0.000610363 0.00143549 0.74653
0.88 0.12 0.00939449 0.00465422 0.00138964 0.574013
0.9 0.12 0.0105281 0.00875638 0.00124937 0.413565
0.92 0.12 0.0100499 0.0115683 0.00103945 0.267831
0.94 0.12 0.00836876 0.0129838 0.000786691 0.135162
0.96 0.12 0.00595092 0.0128537 0.000520135 0.00950688
0.98 0.12 0.00332002 0.010926 0.000272568 -0.118279
1 0.12 0.00108389 0.00681421 8.3103e-05 -0.257765
0 0.14 0 0 -0.515747 0
0.02 0.14 0 0 0 -0.120953
0.04 0.14 -0.000378943 -0.00105609 2.4199e-05 0.0344563
0.06 0.14 -0.00173325 9.26498e-05 4.2264e-05 0.162803
0.08 0.14 -0.00413574 0.00259848 2.05203e-05 0.274175
0.1 0.14 -0.00762904 0.00593886 -6.16526e-05 0.37629
0.12 0.14 -0.0122722 0.00980139 -0.000217031 0.47492
0.14 0.14 -0.0181418 0.0140011 -0.000453744 0.574312
0.16 0.14 -0.0253145 0.0184269 -0.000777167 0.677123
0.18 0.14 -0.0338465 0.023003 -0.00119099 0.783923
0.2 0.14 -0.0437539 0.0276545 -0.00169755 0.89278
0.22 0.14 -0.0549947 0.0322772 -0.00229754 0.999454
0.24 0.14 -0.0674548 0.0367195 -0.00298914 1.09831
0.26 0.14 -0.0809423 0.0407808 -0.00376698 1.18367
0.28 0.14 -0.0951937 0.044227 -0.00462119 1.25119
0.3 0.14 -0.10989 0.0468172 -0.00553704 1.29872
0.32 0.14 -0.124682 0.048331 -0.00649503 1.32662
0.34 0.14 -0.139213 0.0485922 -0.00747161 1.33749
0.36 0.14 -0.153145 0.0474839 -0.00844022 1.33545
0.38 0.14 -0.166169 0.0449533 -0.00937261 1.32527
0.4 0.14 -0.178016 0.0410101 -0.0102401 1.31167
0.42 0.14 -0.188452 0.0357189 -0.0110149 1.29881
0.44 0.14 -0.197282 0.0291912 -0.0116709 1.29014
0.46 0.14 -0.20434 0.0215767 -0.0121847 1.2884
0.48 0.14 -0.209488 0.0130578 -0.0125362 1.29571
0.5 0.14 -0.212605 0.00384542 -0.0127093 1.31369
0.52 0.14 -0.213592 -0.00582271 -0.0126923 1.34341
0.54 0.14 -0.212366 -0.0156825 -0.0124787 1.38537
0.56 0.14 -0.208864 -0.0254434 -0.0120673 1.4393
0.58 0.14 -0.203049 -0.0347903 -0.0114631 1.50397
0.6 0.14 -0.194914 -0.0433866 -0.0106778 1.57697
0.62 0.14 -0.184504 -0.0508835 -0.00972973 1.65456
0.64 0.14 -0.171923 -0.0569344 -0.0086444 1.73154
0.66 0.14 -0.15736 -0.0612169 -0.00745414 1.80142
0.68 0.14 -0.141101 -0.0634619 -0.00619735 1.85667
0.7 0.14 -0.123541 -0.0634875 -0.0049171 1.8894
0.72 0.14 -0.105181 -0.061232 -0.00365908 1.89224
0.74 0.14 -0.0866098 -0.0567814 -0.00246885 1.8594
0.76 0.14 -0.0684719 -0.0503812 -0.00138866 1.78768
0.78 0.14 -0.0514131 -0.0424282 -0.00045424 1.67724
0.8 0.14 -0.0360223 -0.0334385 0.000308008 1.53178
0.82 0.14 -0.0227744 -0.0239958 0.000882988 1.35817
0.84 0.14 -0.0119871 -0.0146903 0.00126766 1.16544
0.86 0.14 -0.00379848 -0.00605841 0.00147051 0.963537
0.88 0.14 0.00183236 0.00146055 0.00150997 0.761884
0.9 0.14 0.00510693 0.00754096 0.00141211 0.567909
0.92 0.14 0.00635819 0.0119537 0.00120838 0.385611
0.94 0.14 0.00601949 0.0145151 0.00093401 0.214365
0.96 0.14 0.00459988 0.0150108 0.000627813 0.0485206
0.98 0.14 0.0026736 0.0131166 0.000333602 -0.121583
1 0.14 0.000889682 0.00834004 0.000103158 -0.306928
0 0.16 0 0 -0.593451 0
0.02 0.16 0 0 0 -0.0640243
0.04 0.16 -0.00079801 0.000125967 1.2812e-05 0.0995255
0.06 0.16 -0.00310187 0.00249013 -5.02399e-06 0.233615
0.08 0.16 -0.00677117 0.00619622 -8.678e-05 0.35152
0.1 0.16 -0.0117321 0.0107503 -0.000252877 0.461719
0.12 0.16 -0.0179968 0.0158809 -0.000516834 0.569076
0.14 0.16 -0.0256307 0.0214227 -0.000888213 0.676222
0.16 0.16 -0.0347072 0.0272555 -0.00137393 0.784013
0.18 0.16 -0.04527 0.0332675 -0.00197873 0.891192
0.2 0.16 -0.0573056 0.0393254 -0.00270505 0.994125
0.22 0.16 -0.0707235 0.0452509 -0.00355232 1.08735
0.24 0.16 -0.0853473 0.0508107 -0.00451583 1.16492
0.26 0.16 -0.100919 0.0557279 -0.00558568 1.22209
0.28 0.16 -0.117119 0.0597098 -0.00674608 1.25645
0.3 0.16 -0.133587 0.0624817 -0.0079754 1.26842
0.32 0.16 -0.149958 0.0638171 -0.00924688 1.26079
0.34 0.16 -0.165881 0.0635564 -0.0105298 1.23792
0.36 0.16 -0.181038 0.0616144 -0.0117911 1.20477
0.38 0.16 -0.195151 0.0579769 -0.0129965 1.16615
0.4 0.16 -0.20798 0.0526924 -0.0141124 1.1264
0.42 0.16 -0.219324 0.0458607 -0.0151066 1.08935
0.44 0.16 -0.229018 0.0376231 -0.0159493 1.05841
0.46 0.16 -0.236921 0.0281543 -0.0166141 1.03675
0.48 0.16 -0.242918 0.0176562 -0.0170781 1.02728
0.5 0.16 -0.246906 0.00635519 -0.017323 1.03269
0.52 0.16 -0.248793 -0.00549823 -0.0173351 1.05525
0.54 0.16 -0.248494 -0.0176282 -0.0171058 1.09669
0.56 0.16 -0.245923 -0.0297301 -0.0166327 1.15793
0.58 0.16 -0.240998 -0.0414683 -0.0159193 1.23878
0.6 0.16 -0.23365 -0.052474 -0.0149765 1.33765
0.62 0.16 -0.223834 -0.0623495 -0.0138228 1.4512
0.64 0.16 -0.211551 -0.070678 -0.0124849 1.57404
0.66 0.16 -0.196872 -0.0770443 -0.0109979 1.69858
0.68 0.16 -0.179974 -0.081066 -0.0094052 1.81516
0.7 0.16 -0.161161 -0.082436 -0.00775714 1.91257
0.72 0.16 -0.140888 -0.0809709 -0.00610937 1.97913
0.74 0.16 -0.119756 -0.0766583 -0.00451968 2.00414
0.76 0.16 -0.0984875 -0.0696903 -0.00304418 1.97974
0.78 0.16 -0.0778721 -0.0604723 -0.00173297 1.90248
0.8 0.16 -0.0586887 -0.0495982 -0.000625965 1.77434
0.82 0.16 -0.0416199 -0.0377921 0.000250474 1.60256
0.84 0.16 -0.0271757 -0.0258269 0.000885399 1.39837
0.86 0.16 -0.0156453 -0.0144385 0.00128336 1.17489
0.88 0.16 -0.00708507 -0.00425715 0.00146285 0.944741
0.9 0.16 -0.00133753 0.00422687 0.00145362 0.71799
0.92 0.16 0.00192888 0.0106538 0.00129379 0.500474
0.94 0.16 0.00317562 0.0147415 0.0010275 0.292682
0.96 0.16 0.00295616 0.0161998 0.000704163 0.089441
0.98 0.16 0.00189186 0.0146368 0.000379534 -0.118978
1 0.16 0.00066228 0.00948834 0.000118698 -0.343883
0 0.18 0 0 -0.648244 0
0.02 0.18 0 0 0 0.0386073
0.04 0.18 -0.00128729 0.00204527 -7.7173e-06 0.19204
0.06 0.18 -0.00465849 0.00606522 -8.1807e-05 0.318055
0.08 0.18 -0.0097095 0.0112282 -0.000250337 0.433413
0.1 0.18 -0.0162319 0.0171642 -0.00053098 0.545968
0.12 0.18 -0.0241874 0.0236998 -0.000937008 0.657818
0.14 0.18 -0.0336272 0.0307111 -0.00147916 0.768442
0.16 0.18 -0.0446138 0.0380656 -0.00216576 0.875953
0.18 0.18 -0.0571664 0.0456004 -0.00300223 0.976903
0.2 0.18 -0.0712284 0.0531062 -0.00399039 1.06612
0.22 0.18 -0.0866515 0.0603163 -0.00512728 1.13755
0.24 0.18 -0.103196 0.0669117 -0.00640405 1.18588
0.26 0.18 -0.120546 0.072547 -0.00780499 1.20807
0.28 0.18 -0.138339 0.0768879 -0.0093074 1.20406
0.3 0.18 -0.156196 0.0796485 -0.0108822 1.17644
0.32 0.18 -0.173751 0.0806161 -0.0124952 1.12951
0.34 0.18 -0.190665 0.0796625 -0.014109 1.06825
0.36 0.18 -0.206642 0.0767419 -0.0156841 0.997648
0.38 0.18 -0.22143 0.0718816 -0.0171811 0.922355
0.4 0.18 -0.234822 0.0651696 -0.018562 0.846779
0.42 0.18 -0.246654 0.0567421 -0.0197907 0.775175
0.44 0.18 -0.256802 0.0467722 -0.0208345 0.711732
0.46 0.18 -0.265172 0.0354596 -0.0216645 0.660543
0.48 0.18 -0.271695 0.0230244 -0.0222559 0.625521
0.5 0.18 -0.276313 0.00970264 -0.0225886 0.610286
0.52 0.18 -0.27897 -0.00425384 -0.0226471 0.618053
0.54 0.18 -0.279597 -0.018574 -0.0224215 0.651523
0.56 0.18 -0.278109 -0.0329615 -0.0219073 0.712715
0.58 0.18 -0.2744 -0.0470858 -0.0211061 0.802737
0.6 0.18 -0.268341 -0.0605748 -0.0200268 0.921424
0.62 0.18 -0.259799 -0.0730091 -0.018686 1.06686
0.64 0.18 -0.24865 -0.0839242 -0.0171092 1.23479
0.66 0.18 -0.234814 -0.0928226 -0.0153317 1.41806
0.68 0.18 -0.218299 -0.0992026 -0.0133988 1.60619
0.7 0.18 -0.199244 -0.102603 -0.0113658 1.78547
0.72 0.18 -0.177968 -0.102667 -0.00929661 1.93966
0.74 0.18 -0.154997 -0.0992114 -0.00726084 2.05166
0.76 0.18 -0.131066 -0.0922928 -0.00532963 2.10609
0.78 0.18 -0.107076 -0.0822522 -0.00357032 2.09222
0.8 0.18 -0.0840108 -0.0697127 -0.00204047 2.00659
0.82 0.18 -0.0628194 -0.0555276 -0.000782504 1.8543
0.84 0.18 -0.0442898 -0.04068 0.000180144 1.6481
0.86 0.18 -0.0289516 -0.0261606 0.000844387 1.40559
0.88 0.18 -0.0170282 -0.0128556 0.00122639 1.14514
0.9 0.18 -0.00844648 -0.00147852 0.00135853 0.882117
0.92 0.18 -0.00288853 0.00743735 0.00128551 0.626203
0.94 0.18 0.000140146 0.0134863 0.00106105 0.380065
0.96 0.18 0.00124796 0.0162942 0.00074608 0.139432
0.98 0.18 0.00111226 0.0154108 0.000409293 -0.105272
1 0.18 0.000451535 0.0102323 0.000129655 -0.365328
0 0.2 0 0 -0.683797 0
0.02 0.2 0 0 0 0.193399
0.04 0.2 -0.00183186 0.00478409 -3.86804e-05 0.313411
0.06 0.2 -0.00634793 0.010912 -0.000191376 0.414726
0.08 0.2 -0.0128388 0.0177694 -0.000475203 0.517438
0.1 0.2 -0.0209507 0.0252282 -0.00090225 0.626399
0.12 0.2 -0.030594 0.0332763 -0.00148451 0.738322
0.14 0.2 -0.041803 0.0418493 -0.0022336 0.847711
0.16 0.2 -0.05462 0.0507946 -0.00315893 0.949096
0.18 0.2 -0.0690278 0.0598815 -0.00426601 1.03677
0.2 0.2 -0.0849164 0.0688092 -0.00555501 1.10449
0.22 0.2 -0.102075 0.0772161 -0.00701943 1.14642
0.24 0.2 -0.120205 0.0847021 -0.00864495 1.1586
0.26 0.2 -0.138942 0.0908672 -0.0104091 1.1401
0.28 0.2 -0.157895 0.0953552 -0.0122814 1.09292
0.3 0.2 -0.176673 0.0978871 -0.0142253 1.02113
0.32 0.2 -0.194912 0.0982778 -0.0161992 0.929757
0.34 0.2 -0.212285 0.0964388 -0.0181589 0.824075
0.36 0.2 -0.228516 0.09237 -0.0200594 0.709312
0.38 0.2 -0.243386 0.0861469 -0.0218565 0.59068
0.4 0.2 -0.256729 0.077906 -0.0235082 0.47341
0.42 0.2 -0.268436 0.0678292 -0.0249758 0.36269
0.44 0.2 -0.278446 0.056129 -0.0262245 0.263509
0.46 0.2 -0.286738 0.043035 -0.0272242 0.180491
0.48 0.2 -0.293312 0.0287844 -0.0279492 0.117803
0.5 0.2 -0.298176 0.0136161 -0.0283789 0.0791565
0.52 0.2 -0.30133 -0.00222921 -0.0284972 0.0678813
0.54 0.2 -0.302746 -0.0185039 -0.028293 0.0870078
0.56 0.2 -0.302361 -0.0349436 -0.0277603 0.139302
0.58 0.2 -0.300064 -0.0512539 -0.0268986 0.227173
0.6 0.2 -0.295696 -0.067094 -0.0257134 0.352385
0.62 0.2 -0.289048 -0.0820626 -0.024218 0.51553
0.64 0.2 -0.279882 -0.0956866 -0.022434 0.715219
0.66 0.2 -0.267957 -0.107421 -0.0203934 0.947051
0.68 0.2 -0.253075 -0.116663 -0.0181399 1.20251
0.7 0.2 -0.235142 -0.122796 -0.0157295 1.46807
0.72 0.2 -0.21424 -0.125248 -0.0132305 1.72499
0.74 0.2 -0.190697 -0.123591 -0.0107217 1.95029
0.76 0.2 -0.165133 -0.117642 -0.00828861 2.11937
0.78 0.2 -0.13846 -0.107555 -0.0060175 2.2101
0.8 0.2 -0.111819 -0.0938799 -0.0039876 2.2078
0.82 0.2 -0.0864453 -0.0775353 -0.00226323 2.10936
0.84 0.2 -0.0634922 -0.0597132 -0.000886868 1.9248
0.86 0.2 -0.0438545 -0.0417148 0.000124841 1.67495
0.88 0.2 -0.0280483 -0.0247731 0.000781438 1.38589
0.9 0.2 -0.0161775 -0.00992027 0.00111561 1.08212
0.92 0.2 -0.00798551 0.00206252 0.00117818 0.781115
0.94 0.2 -0.00295418 0.0106025 0.00103309 0.490546
0.96 0.2 -0.000407134 0.0152267 0.000754088 0.208451
0.98 0.2 0.000410794 0.0154332 0.000424035 -0.0742816
1 0.2 0.000285196 0.0106009 0.000136765 -0.369238
0 0.22 0 0 -0.705317 0
0.02 0.22 0 0 0 0.404959
0.04 0.22 -0.00240948 0.0083931 -8.0999e-05 0.463723
0.06 0.22 -0.0080993 0.0170723 -0.000335758 0.521525
0.08 0.22 -0.0160269 0.0258312 -0.000763975 0.600963
0.1 0.22 -0.025689 0.0349199 -0.00136917 0.70042
0.12 0.22 -0.0369459 0.0445528 -0.00216104 0.807936
0.14 0.22 -0.04981 0.0547378 -0.0031517 0.911097
0.16 0.22 -0.0642946 0.065291 -0.00435116 1.00023
0.18 0.22 -0.0803353 0.0758971 -0.00576415 1.0676
0.2 0.22 -0.0977625 0.0861536 -0.00738809 1.10659
0.22 0.22 -0.116303 0.095604 -0.0092116 1.11227
0.24 0.22 -0.135603 0.103777 -0.0112138 1.08254
0.26 0.22 -0.155259 0.110235 -0.0133645 1.01849
0.28 0.22 -0.174856 0.114616 -0.0156253 0.923782
0.3 0.22 -0.193994 0.11666 -0.0179515 0.803548
0.32 0.22 -0.21231 0.116222 -0.0202943 0.663557
0.34 0.22 -0.229492 0.113262 -0.0226031 0.509893
0.36 0.22 -0.245294 0.107837 -0.0248276 0.348872
0.38 0.22 -0.259541 0.100087 -0.0269196 0.186941
0.4 0.22 -0.272132 0.0902124 -0.0288343 0.0304031
0.42 0.22 -0.283033 0.0784526 -0.0305314 -0.114938
0.44 0.22 -0.29227 0.0650675 -0.0319757 -0.244068
0.46 0.22 -0.299904 0.0503184 -0.0331374 -0.35287
0.48 0.22 -0.306018 0.0344557 -0.0339918 -0.438039
0.5 0.22 -0.310693 0.0177129 -0.034519 -0.496847
0.52 0.22 -0.313991 0.00030769 -0.0347037 -0.526828
0.54 0.22 -0.315938 -0.0175513 -0.0345348 -0.525455
0.56 0.22 -0.316511 -0.035652 -0.0340051 -0.48989
0.58 0.22 -0.31562 -0.0537612 -0.0331121 -0.416865
0.6 0.22 -0.313104 -0.0716034 -0.031858 -0.302781
0.62 0.22 -0.308724 -0.0888372 -0.0302512 -0.144106
0.64 0.22 -0.302167 -0.105032 -0.0283077 0.0618296
0.66 0.22 -0.293059 -0.119649 -0.0260531 0.315575
0.68 0.22 -0.281009 -0.13204 -0.0235248 0.613849
0.7 0.22 -0.265662 -0.141464 -0.0207743 0.947591
0.72 0.22 -0.246793 -0.14714 -0.0178689 1.30022
0.74 0.22 -0.224405 -0.148348 -0.0148911 1.64688
0.76 0.22 -0.198838 -0.14456 -0.0119371 1.95567
0.78 0.22 -0.170838 -0.135596 -0.00911053 2.19159
0.8 0.22 -0.141553 -0.121755 -0.00651473 2.32319
0.82 0.22 -0.112437 -0.10388 -0.0042415 2.3306
0.84 0.22 -0.0850346 -0.0832925 -0.00236043 2.21187
0.86 0.22 -0.0607291 -0.0616222 -0.000910417 1.98461
0.88 0.22 -0.0404987 -0.0405462 0.000104055 1.68086
0.9 0.22 -0.0247862 -0.0215509 0.00071119 1.33726
0.92 0.22 -0.0135067 -0.00579222 0.000965968 0.984405
0.94 0.22 -0.00616627 0.00590433 0.00094283 0.640152
0.96 0.22 -0.00202029 0.0129276 0.000729785 0.308125
0.98 0.22 -0.000208036 0.014718 0.000425729 -0.0191653
1 0.22 0.000166354 0.0106432 0.000141067 -0.354099
0 0.24 0 0 -0.717095 0
0.02 0.24 0 0 0 0.675299
0.04 0.24 -0.00299103 0.0128837 -0.000135075 0.641793
0.06 0.24 -0.00982851 0.0245302 -0.000515407 0.636038
0.08 0.24 -0.0191267 0.0353601 -0.00111641 0.68155
0.1 0.24 -0.0302346 0.0461483 -0.00193005 0.765834
0.12 0.24 -0.0429629 0.0573988 -0.00296272 0.864506
0.14 0.24 -0.0572968 0.0691997 -0.00422655 0.95635
0.16 0.24 -0.073211 0.0813217 -0.00573147 1.02716
0.18 0.24 -0.0905865 0.0933509 -0.00748042 1.06769
0.2 0.24 -0.10919 0.104778 -0.00946678 1.07164
0.22 0.24 -0.128689 0.115057 -0.0116731 1.03558
0.24 0.24 -0.14868 0.123658 -0.0140709 0.959439
0.26 0.24 -0.168724 0.13012 -0.0166215 0.846239
0.28 0.24 -0.188387 0.134089 -0.019278 0.70118
0.3 0.24 -0.20726 0.135339 -0.0219876 0.530699
0.32 0.24 -0.224988 0.133773 -0.0246943 0.342001
0.34 0.24 -0.241289 0.12942 -0.0273415 0.142839
0.36 0.24 -0.255964 0.122416 -0.0298742 -0.0587818
0.38 0.24 -0.268909 0.112982 -0.0322413 -0.255142
0.4 0.24 -0.280106 0.101396 -0.0343967 -0.439426
0.42 0.24 -0.289614 0.0879653 -0.0363004 -0.606189
0.44 0.24 -0.297549 0.072998 -0.0379186 -0.751535
0.46 0.24 -0.304056 0.0567817 -0.0392237 -0.872985
0.48 0.24 -0.309292 0.0395722 -0.0401933 -0.969115
0.5 0.24 -0.3134 0.0215885 -0.0408099 -1.03907
0.52 0.24 -0.316499 0.00301608 -0.0410601 -1.08205
0.54 0.24 -0.318664 -0.0159845 -0.0409339 -1.09681
0.56 0.24 -0.319915 -0.0352634 -0.0404241 -1.08127
0.58 0.24 -0.320204 -0.0546627 -0.0395267 -1.03215
0.6 0.24 -0.319404 -0.0739931 -0.0382409 -0.944847
0.62 0.24 -0.317291 -0.093006 -0.0365702 -0.813539
0.64 0.24 -0.313539 -0.11136 -0.0345239 -0.631635
0.66 0.24 -0.307716 -0.12859 -0.032119 -0.392856
0.68 0.24 -0.299299 -0.144075 -0.0293834 -0.0930335
0.7 0.24 -0.287718 -0.15703 -0.026359 0.26727
0.72 0.24 -0.272435 -0.166528 -0.023105 0.67955
0.74 0.24 -0.25306 -0.171572 -0.0197005 1.12425