Title=" Lid Driven Flow"
VARIABLES="X","Y","U","V","psi","xi"
ZONE T= "BOX", I= 201, J=201, F=POINT
0 0 0 0 0.00324712 0
0.005 0 0 0 0 0
0.01 0 0 0 0 0
0.015 0 0 0 0 161.891
0.02 0 0 0 0 176.122
0.025 0 0 0 0 155.601
0.03 0 0 0 0 133.208
0.035 0 0 0 0 115.686
0.04 0 0 0 0 102.83
0.045 0 0 0 0 93.2958
0.05 0 0 0 0 85.9732
0.055 0 0 0 0 80.1292
0.06 0 0 0 0 75.3052
0.065 0 0 0 0 71.2125
0.07 0 0 0 0 67.6632
0.075 0 0 0 0 64.5308
0.08 0 0 0 0 61.7271
0.085 0 0 0 0 59.1885
0.09 0 0 0 0 56.8682
0.095 0 0 0 0 54.7311
0.1 0 0 0 0 52.7502
0.105 0 0 0 0 50.9044
0.11 0 0 0 0 49.1773
0.115 0 0 0 0 47.5553
0.12 0 0 0 0 46.0275
0.125 0 0 0 0 44.585
0.13 0 0 0 0 43.22
0.135 0 0 0 0 41.9262
0.14 0 0 0 0 40.6979
0.145 0 0 0 0 39.5302
0.15 0 0 0 0 38.4187
0.155 0 0 0 0 37.3596
0.16 0 0 0 0 36.3493
0.165 0 0 0 0 35.3846
0.17 0 0 0 0 34.4626
0.175 0 0 0 0 33.5806
0.18 0 0 0 0 32.7359
0.185 0 0 0 0 31.9263
0.19 0 0 0 0 31.1494
0.195 0 0 0 0 30.4034
0.2 0 0 0 0 29.686
0.205 0 0 0 0 28.9956
0.21 0 0 0 0 28.3304
0.215 0 0 0 0 27.6887
0.22 0 0 0 0 27.0689
0.225 0 0 0 0 26.4697
0.23 0 0 0 0 25.8896
0.235 0 0 0 0 25.3272
0.24 0 0 0 0 24.7815
0.245 0 0 0 0 24.2511
0.25 0 0 0 0 23.7349
0.255 0 0 0 0 23.2321
0.26 0 0 0 0 22.7414
0.265 0 0 0 0 22.2622
0.27 0 0 0 0 21.7933
0.275 0 0 0 0 21.3342
0.28 0 0 0 0 20.884
0.285 0 0 0 0 20.4419
0.29 0 0 0 0 20.0074
0.295 0 0 0 0 19.5799
0.3 0 0 0 0 19.1586
0.305 0 0 0 0 18.7433
0.31 0 0 0 0 18.3332
0.315 0 0 0 0 17.9281
0.32 0 0 0 0 17.5275
0.325 0 0 0 0 17.131
0.33 0 0 0 0 16.7383
0.335 0 0 0 0 16.3492
0.34 0 0 0 0 15.9633
0.345 0 0 0 0 15.5804
0.35 0 0 0 0 15.2003
0.355 0 0 0 0 14.8229
0.36 0 0 0 0 14.4481
0.365 0 0 0 0 14.0756
0.37 0 0 0 0 13.7055
0.375 0 0 0 0 13.3376
0.38 0 0 0 0 12.9721
0.385 0 0 0 0 12.6087
0.39 0 0 0 0 12.2476
0.395 0 0 0 0 11.8888
0.4 0 0 0 0 11.5324
0.405 0 0 0 0 11.1784
0.41 0 0 0 0 10.8269
0.415 0 0 0 0 10.4781
0.42 0 0 0 0 10.132
0.425 0 0 0 0 9.78891
0.43 0 0 0 0 9.44887
0.435 0 0 0 0 9.11208
0.44 0 0 0 0 8.77873
0.445 0 0 0 0 8.449
0.45 0 0 0 0 8.12309
0.455 0 0 0 0 7.80121
0.46 0 0 0 0 7.48356
0.465 0 0 0 0 7.17035
0.47 0 0 0 0 6.86181
0.475 0 0 0 0 6.55813
0.48 0 0 0 0 6.25954
0.485 0 0 0 0 5.96624
0.49 0 0 0 0 5.67844
0.495 0 0 0 0 5.39633
0.5 0 0 0 0 5.12012
0.505 0 0 0 0 4.84997
0.51 0 0 0 0 4.58607
0.515 0 0 0 0 4.32857
0.52 0 0 0 0 4.07763
0.525 0 0 0 0 3.83338
0.53 0 0 0 0 3.59595
0.535 0 0 0 0 3.36544
0.54 0 0 0 0 3.14196
0.545 0 0 0 0 2.92556
0.55 0 0 0 0 2.71633
0.555 0 0 0 0 2.51429
0.56 0 0 0 0 2.31949
0.565 0 0 0 0 2.13192
0.57 0 0 0 0 1.95158
0.575 0 0 0 0 1.77846
0.58 0 0 0 0 1.61251
0.585 0 0 0 0 1.45367
0.59 0 0 0 0 1.30189
0.595 0 0 0 0 1.15706
0.6 0 0 0 0 1.01911
0.605 0 0 0 0 0.887909
0.61 0 0 0 0 0.763342
0.615 0 0 0 0 0.645275
0.62 0 0 0 0 0.533561
0.625 0 0 0 0 0.428048
0.63 0 0 0 0 0.328574
0.635 0 0 0 0 0.234969
0.64 0 0 0 0 0.147058
0.645 0 0 0 0 0.0646601
0.65 0 0 0 0 -0.0124103
0.655 0 0 0 0 -0.0843419
0.66 0 0 0 0 -0.151326
0.665 0 0 0 0 -0.213557
0.67 0 0 0 0 -0.271228
0.675 0 0 0 0 -0.324535
0.68 0 0 0 0 -0.373675
0.685 0 0 0 0 -0.418842
0.69 0 0 0 0 -0.460232
0.695 0 0 0 0 -0.498037
0.7 0 0 0 0 -0.532452
0.705 0 0 0 0 -0.563667
0.71 0 0 0 0 -0.591872
0.715 0 0 0 0 -0.617254
0.72 0 0 0 0 -0.639998
0.725 0 0 0 0 -0.660286
0.73 0 0 0 0 -0.678296
0.735 0 0 0 0 -0.694201
0.74 0 0 0 0 -0.708169
0.745 0 0 0 0 -0.720363
0.75 0 0 0 0 -0.730938
0.755 0 0 0 0 -0.740037
0.76 0 0 0 0 -0.747798
0.765 0 0 0 0 -0.754345
0.77 0 0 0 0 -0.759791
0.775 0 0 0 0 -0.764232
0.78 0 0 0 0 -0.767753
0.785 0 0 0 0 -0.770422
0.79 0 0 0 0 -0.77229
0.795 0 0 0 0 -0.77339
0.8 0 0 0 0 -0.773741
0.805 0 0 0 0 -0.773341
0.81 0 0 0 0 -0.772175
0.815 0 0 0 0 -0.770208
0.82 0 0 0 0 -0.767395
0.825 0 0 0 0 -0.763672
0.83 0 0 0 0 -0.758967
0.835 0 0 0 0 -0.753196
0.84 0 0 0 0 -0.746269
0.845 0 0 0 0 -0.738089
0.85 0 0 0 0 -0.728559
0.855 0 0 0 0 -0.71758
0.86 0 0 0 0 -0.705057
0.865 0 0 0 0 -0.690903
0.87 0 0 0 0 -0.675039
0.875 0 0 0 0 -0.6574
0.88 0 0 0 0 -0.637936
0.885 0 0 0 0 -0.616618
0.89 0 0 0 0 -0.593438
0.895 0 0 0 0 -0.568411
0.9 0 0 0 0 -0.541582
0.905 0 0 0 0 -0.513024
0.91 0 0 0 0 -0.482843
0.915 0 0 0 0 -0.451177
0.92 0 0 0 0 -0.418201
0.925 0 0 0 0 -0.384123
0.93 0 0 0 0 -0.349191
0.935 0 0 0 0 -0.313687
0.94 0 0 0 0 -0.277934
0.945 0 0 0 0 -0.24229
0.95 0 0 0 0 -0.207155
0.955 0 0 0 0 -0.172961
0.96 0 0 0 0 -0.140183
0.965 0 0 0 0 -0.10933
0.97 0 0 0 0 -0.0809479
0.975 0 0 0 0 -0.0556161
0.98 0 0 0 0 -0.0339383
0.985 0 0 0 0 -0.0165242
0.99 0 0 0 0 -0.00394272
0.995 0 0 0 0 0.00338717
1 0 0 0 0 0.00545464
0 0.005 0 0 0 0
0.005 0.005 0 0 0 0
0.01 0.005 0 0 0 73.7281
0.015 0.005 0 0 0 62.0695
0.02 0.005 0 0 0 45.7233
0.025 0.005 0 0 0 33.9578
0.03 0.005 0 0 0 26.0602
0.035 0.005 0 0 0 20.6295
0.04 0.005 0 0 0 16.7247
0.045 0.005 0 0 0 13.7946
0.05 0.005 0 0 0 11.5203
0.055 0.005 0 0 0 9.7104
0.06 0.005 0 0 0 8.24473
0.065 0.005 0 0 0 7.04337
0.07 0.005 0 0 0 6.0505
0.075 0.005 0 0 0 5.22542
0.08 0.005 0 0 0 4.5373
0.085 0.005 0 0 0 3.96216
0.09 0.005 0 0 0 3.48091
0.095 0.005 0 0 0 3.07815
0.1 0.005 0 0 0 2.74126
0.105 0.005 0 0 0 2.45986
0.11 0.005 0 0 0 2.22535
0.115 0.005 0 0 0 2.03055
0.12 0.005 0 0 0 1.86949
0.125 0.005 0 0 0 1.73718
0.13 0.005 0 0 0 1.62943
0.135 0.005 0 0 0 1.54273
0.14 0.005 0 0 0 1.47416
0.145 0.005 0 0 0 1.42123
0.15 0.005 0 0 0 1.3819
0.155 0.005 0 0 0 1.35442
0.16 0.005 0 0 0 1.33736
0.165 0.005 0 0 0 1.32948
0.17 0.005 0 0 0 1.32977
0.175 0.005 0 0 0 1.33738
0.18 0.005 0 0 0 1.35158
0.185 0.005 0 0 0 1.37177
0.19 0.005 0 0 0 1.39745
0.195 0.005 0 0 0 1.42818
0.2 0.005 0 0 0 1.46361
0.205 0.005 0 0 0 1.50343
0.21 0.005 0 0 0 1.54737
0.215 0.005 0 0 0 1.5952
0.22 0.005 0 0 0 1.64674
0.225 0.005 0 0 0 1.70181
0.23 0.005 0 0 0 1.76025
0.235 0.005 0 0 0 1.82193
0.24 0.005 0 0 0 1.88672
0.245 0.005 0 0 0 1.9545
0.25 0.005 0 0 0 2.02516
0.255 0.005 0 0 0 2.09859
0.26 0.005 0 0 0 2.17468
0.265 0.005 0 0 0 2.25334
0.27 0.005 0 0 0 2.33445
0.275 0.005 0 0 0 2.41791
0.28 0.005 0 0 0 2.50361
0.285 0.005 0 0 0 2.59144
0.29 0.005 0 0 0 2.68129
0.295 0.005 0 0 0 2.77303
0.3 0.005 0 0 0 2.86655
0.305 0.005 0 0 0 2.96171
0.31 0.005 0 0 0 3.05839
0.315 0.005 0 0 0 3.15645
0.32 0.005 0 0 0 3.25575
0.325 0.005 0 0 0 3.35613
0.33 0.005 0 0 0 3.45745
0.335 0.005 0 0 0 3.55955
0.34 0.005 0 0 0 3.66226
0.345 0.005 0 0 0 3.76542
0.35 0.005 0 0 0 3.86886
0.355 0.005 0 0 0 3.97239
0.36 0.005 0 0 0 4.07584
0.365 0.005 0 0 0 4.17902
0.37 0.005 0 0 0 4.28175
0.375 0.005 0 0 0 4.38382
0.38 0.005 0 0 0 4.48505
0.385 0.005 0 0 0 4.58523
0.39 0.005 0 0 0 4.68416
0.395 0.005 0 0 0 4.78165
0.4 0.005 0 0 0 4.87749
0.405 0.005 0 0 0 4.97146
0.41 0.005 0 0 0 5.06338
0.415 0.005 0 0 0 5.15302
0.42 0.005 0 0 0 5.2402
0.425 0.005 0 0 0 5.32469
0.43 0.005 0 0 0 5.4063
0.435 0.005 0 0 0 5.48484
0.44 0.005 0 0 0 5.56009
0.445 0.005 0 0 0 5.63188
0.45 0.005 0 0 0 5.7
0.455 0.005 0 0 0 5.76427
0.46 0.005 0 0 0 5.82452
0.465 0.005 0 0 0 5.88056
0.47 0.005 0 0 0 5.93222
0.475 0.005 0 0 0 5.97934
0.48 0.005 0 0 0 6.02178
0.485 0.005 0 0 0 6.05937
0.49 0.005 0 0 0 6.09198
0.495 0.005 0 0 0 6.11949
0.5 0.005 0 0 0 6.14176
0.505 0.005 0 0 0 6.1587
0.51 0.005 0 0 0 6.1702
0.515 0.005 0 0 0 6.17617
0.52 0.005 0 0 0 6.17653
0.525 0.005 0 0 0 6.17123
0.53 0.005 0 0 0 6.16021
0.535 0.005 0 0 0 6.14344
0.54 0.005 0 0 0 6.12088
0.545 0.005 0 0 0 6.09252
0.55 0.005 0 0 0 6.05838
0.555 0.005 0 0 0 6.01846
0.56 0.005 0 0 0 5.9728
0.565 0.005 0 0 0 5.92144
0.57 0.005 0 0 0 5.86445
0.575 0.005 0 0 0 5.80191
0.58 0.005 0 0 0 5.73391
0.585 0.005 0 0 0 5.66055
0.59 0.005 0 0 0 5.58196
0.595 0.005 0 0 0 5.49827
0.6 0.005 0 0 0 5.40965
0.605 0.005 0 0 0 5.31624
0.61 0.005 0 0 0 5.21825
0.615 0.005 0 0 0 5.11586
0.62 0.005 0 0 0 5.00927
0.625 0.005 0 0 0 4.89872
0.63 0.005 0 0 0 4.78443
0.635 0.005 0 0 0 4.66665
0.64 0.005 0 0 0 4.54562
0.645 0.005 0 0 0 4.42163
0.65 0.005 0 0 0 4.29494
0.655 0.005 0 0 0 4.16582
0.66 0.005 0 0 0 4.03458
0.665 0.005 0 0 0 3.9015
0.67 0.005 0 0 0 3.76688
0.675 0.005 0 0 0 3.63103
0.68 0.005 0 0 0 3.49425
0.685 0.005 0 0 0 3.35684
0.69 0.005 0 0 0 3.21912
0.695 0.005 0 0 0 3.08138
0.7 0.005 0 0 0 2.94393
0.705 0.005 0 0 0 2.80707
0.71 0.005 0 0 0 2.67109
0.715 0.005 0 0 0 2.53628
0.72 0.005 0 0 0 2.40291
0.725 0.005 0 0 0 2.27127
0.73 0.005 0 0 0 2.14161
0.735 0.005 0 0 0 2.01418
0.74 0.005 0 0 0 1.88922
0.745 0.005 0 0 0 1.76696
0.75 0.005 0 0 0 1.64762
0.755 0.005 0 0 0 1.53139
0.76 0.005 0 0 0 1.41846
0.765 0.005 0 0 0 1.309
0.77 0.005 0 0 0 1.20316
0.775 0.005 0 0 0 1.10109
0.78 0.005 0 0 0 1.00289
0.785 0.005 0 0 0 0.908681
0.79 0.005 0 0 0 0.818548
0.795 0.005 0 0 0 0.732561
0.8 0.005 0 0 0 0.650776
0.805 0.005 0 0 0 0.573232
0.81 0.005 0 0 0 0.499951
0.815 0.005 0 0 0 0.430942
0.82 0.005 0 0 0 0.366196
0.825 0.005 0 0 0 0.305692
0.83 0.005 0 0 0 0.249393
0.835 0.005 0 0 0 0.197252
0.84 0.005 0 0 0 0.149207
0.845 0.005 0 0 0 0.105186
0.85 0.005 0 0 0 0.0651058
0.855 0.005 0 0 0 0.0288733
0.86 0.005 0 0 0 -0.00361288
0.865 0.005 0 0 0 -0.0324623
0.87 0.005 0 0 0 -0.0577914
0.875 0.005 0 0 0 -0.0797232
0.88 0.005 0 0 0 -0.0983859
0.885 0.005 0 0 0 -0.113912
0.89 0.005 0 0 0 -0.12644
0.895 0.005 0 0 0 -0.136109
0.9 0.005 0 0 0 -0.143063
0.905 0.005 0 0 0 -0.147449
0.91 0.005 0 0 0 -0.149417
0.915 0.005 0 0 0 -0.149118
0.92 0.005 0 0 0 -0.146708
0.925 0.005 0 0 0 -0.142349
0.93 0.005 0 0 0 -0.136206
0.935 0.005 0 0 0 -0.128451
0.94 0.005 0 0 0 -0.119269
0.945 0.005 0 0 0 -0.108853
0.95 0.005 0 0 0 -0.097417
0.955 0.005 0 0 0 -0.0851938
0.96 0.005 0 0 0 -0.0724454
0.965 0.005 0 0 0 -0.05947
0.97 0.005 0 0 0 -0.0466121
0.975 0.005 0 0 0 -0.0342746
0.98 0.005 0 0 0 -0.0229317
0.985 0.005 0 0 0 -0.0131387
0.99 0.005 0 0 0 -0.0055253
0.995 0.005 0 0 0 -0.000726697
1 0.005 0 0 0 0.000877738
0 0.01 0 0 0.000877738 0
0.005 0.01 0 0 0 -326.272
0.01 0.01 -0.180043 0.0775869 -0.000921601 -44.4042
0.015 0.01 -0.184855 -0.035006 -0.000775869 9.52858
0.02 0.01 -0.156372 -0.0351396 -0.000571541 19.1157
0.025 0.01 -0.127534 -0.0245789 -0.000424473 18.9897
0.03 0.01 -0.104127 -0.0166604 -0.000325752 16.8241
0.035 0.01 -0.0858997 -0.0116694 -0.000257869 14.4932
0.04 0.01 -0.0716574 -0.00854364 -0.000209058 12.4257
0.045 0.01 -0.0603558 -0.00650549 -0.000172433 10.6755
0.05 0.01 -0.0512393 -0.00510528 -0.000144003 9.2077
0.055 0.01 -0.0437826 -0.00409441 -0.00012138 7.97475
0.06 0.01 -0.0376185 -0.00333379 -0.000103059 6.93481
0.065 0.01 -0.0324834 -0.00274278 -8.80421e-05 6.05426
0.07 0.01 -0.0281828 -0.00227243 -7.56313e-05 5.3065
0.075 0.01 -0.0245682 -0.0018915 -6.53177e-05 4.67036
0.08 0.01 -0.0215238 -0.00157907 -5.67163e-05 4.12871
0.085 0.01 -0.0189568 -0.00132048 -4.9527e-05 3.66751
0.09 0.01 -0.0167919 -0.00110501 -4.35114e-05 3.27507
0.095 0.01 -0.014967 -0.000924565 -3.84768e-05 2.9416
0.1 0.01 -0.0134307 -0.000772855 -3.42657e-05 2.65879
0.105 0.01 -0.01214 -0.000644888 -3.07482e-05 2.4196
0.11 0.01 -0.0110588 -0.000536635 -2.78168e-05 2.21802
0.115 0.01 -0.0101565 -0.00044481 -2.53818e-05 2.04893
0.12 0.01 -0.00940763 -0.000366705 -2.33686e-05 1.90793
0.125 0.01 -0.00879044 -0.000300076 -2.17148e-05 1.79127
0.13 0.01 -0.00828664 -0.000243057 -2.03679e-05 1.69575
0.135 0.01 -0.00788075 -0.000194091 -1.92841e-05 1.61863
0.14 0.01 -0.0075597 -0.000151875 -1.84269e-05 1.55755
0.145 0.01 -0.00731243 -0.000115319 -1.77654e-05 1.51054
0.15 0.01 -0.00712959 -8.35075e-05 -1.72737e-05 1.47587
0.155 0.01 -0.00700328 -5.56751e-05 -1.69303e-05 1.45209
0.16 0.01 -0.00692684 -3.11785e-05 -1.67169e-05 1.43798
0.165 0.01 -0.00689462 -9.47885e-06 -1.66184e-05 1.43246
0.17 0.01 -0.00690186 9.8752e-06 -1.66221e-05 1.43463
0.175 0.01 -0.00694455 2.72615e-05 -1.67172e-05 1.44374
0.18 0.01 -0.00701928 4.29957e-05 -1.68947e-05 1.45913
0.185 0.01 -0.00712317 5.73413e-05 -1.71471e-05 1.48024
0.19 0.01 -0.00725377 7.05173e-05 -1.74681e-05 1.50659
0.195 0.01 -0.007409 8.27059e-05 -1.78523e-05 1.53777
0.2 0.01 -0.0075871 9.40575e-05 -1.82951e-05 1.57342
0.205 0.01 -0.00778654 0.000104696 -1.87928e-05 1.61325
0.21 0.01 -0.00800602 0.000114723 -1.93421e-05 1.65699
0.215 0.01 -0.00824439 0.000124222 -1.994e-05 1.7044
0.22 0.01 -0.00850065 0.00013326 -2.05843e-05 1.75528
0.225 0.01 -0.00877391 0.00014189 -2.12726e-05 1.80944
0.23 0.01 -0.00906339 0.000150154 -2.20031e-05 1.86672
0.235 0.01 -0.00936836 0.000158087 -2.27741e-05 1.92697
0.24 0.01 -0.00968816 0.000165712 -2.3584e-05 1.99004
0.245 0.01 -0.0100221 0.000173049 -2.44312e-05 2.0558
0.25 0.01 -0.0103697 0.000180111 -2.53145e-05 2.12412
0.255 0.01 -0.0107304 0.000186906 -2.62323e-05 2.19489
0.26 0.01 -0.0111034 0.000193437 -2.71835e-05 2.26797
0.265 0.01 -0.0114884 0.000199707 -2.81667e-05 2.34326
0.27 0.01 -0.0118848 0.000205713 -2.91806e-05 2.42064
0.275 0.01 -0.0122919 0.000211451 -3.02238e-05 2.49998
0.28 0.01 -0.0127093 0.000216915 -3.12951e-05 2.58118
0.285 0.01 -0.0131363 0.000222097 -3.2393e-05 2.6641
0.29 0.01 -0.0135724 0.000226988 -3.35161e-05 2.74862
0.295 0.01 -0.0140169 0.000231577 -3.46629e-05 2.83462
0.3 0.01 -0.0144692 0.000235855 -3.58318e-05 2.92196
0.305 0.01 -0.0149287 0.000239808 -3.70214e-05 3.01052
0.31 0.01 -0.0153947 0.000243424 -3.82299e-05 3.10016
0.315 0.01 -0.0158664 0.000246692 -3.94557e-05 3.19073
0.32 0.01 -0.0163432 0.000249597 -4.06969e-05 3.28209
0.325 0.01 -0.0168244 0.000252127 -4.19517e-05 3.3741
0.33 0.01 -0.0173092 0.00025427 -4.32182e-05 3.4666
0.335 0.01 -0.0177967 0.000256012 -4.44944e-05 3.55944
0.34 0.01 -0.0182862 0.00025734 -4.57783e-05 3.65246
0.345 0.01 -0.018777 0.000258243 -4.70678e-05 3.7455
0.35 0.01 -0.019268 0.000258709 -4.83608e-05 3.83839
0.355 0.01 -0.0197585 0.000258728 -4.96549e-05 3.93097
0.36 0.01 -0.0202476 0.000258287 -5.09481e-05 4.02307
0.365 0.01 -0.0207344 0.000257378 -5.22378e-05 4.11452
0.37 0.01 -0.021218 0.000255992 -5.35219e-05 4.20514
0.375 0.01 -0.0216975 0.00025412 -5.47978e-05 4.29476
0.38 0.01 -0.0221719 0.000251755 -5.60631e-05 4.38319
0.385 0.01 -0.0226403 0.000248892 -5.73154e-05 4.47028
0.39 0.01 -0.0231018 0.000245524 -5.85521e-05 4.55583
0.395 0.01 -0.0235554 0.000241647 -5.97707e-05 4.63967
0.4 0.01 -0.0240001 0.000237259 -6.09686e-05 4.72162
0.405 0.01 -0.024435 0.000232358 -6.21434e-05 4.80151
0.41 0.01 -0.0248592 0.000226943 -6.32923e-05 4.87915
0.415 0.01 -0.0252716 0.000221015 -6.44129e-05 4.95439
0.42 0.01 -0.0256714 0.000214576 -6.55025e-05 5.02704
0.425 0.01 -0.0260577 0.000207629 -6.65587e-05 5.09694
0.43 0.01 -0.0264294 0.000200178 -6.75789e-05 5.16391
0.435 0.01 -0.0267857 0.000192231 -6.85606e-05 5.22781
0.44 0.01 -0.0271257 0.000183793 -6.95013e-05 5.28846
0.445 0.01 -0.0274486 0.000174874 -7.03986e-05 5.34572
0.45 0.01 -0.0277534 0.000165485 -7.12501e-05 5.39943
0.455 0.01 -0.0280394 0.000155636 -7.20535e-05 5.44945
0.46 0.01 -0.0283057 0.000145342 -7.28066e-05 5.49564
0.465 0.01 -0.0285515 0.000134616 -7.3507e-05 5.53787
0.47 0.01 -0.0287762 0.000123476 -7.41528e-05 5.576
0.475 0.01 -0.0289791 0.000111938 -7.47419e-05 5.60993
0.48 0.01 -0.0291593 0.000100021 -7.52723e-05 5.63953
0.485 0.01 -0.0293164 8.77467e-05 -7.57422e-05 5.66471
0.49 0.01 -0.0294498 7.51363e-05 -7.61499e-05 5.68536
0.495 0.01 -0.0295588 6.22132e-05 -7.64937e-05 5.7014
0.5 0.01 -0.029643 4.90022e-05 -7.67722e-05 5.71275
0.505 0.01 -0.0297019 3.55293e-05 -7.69839e-05 5.71933
0.51 0.01 -0.0297351 2.18219e-05 -7.71276e-05 5.72109
0.515 0.01 -0.0297424 7.90876e-06 -7.72022e-05 5.71798
0.52 0.01 -0.0297233 -6.18029e-06 -7.72068e-05 5.70994
0.525 0.01 -0.0296777 -2.04142e-05 -7.71406e-05 5.69696
0.53 0.01 -0.0296053 -3.47607e-05 -7.70028e-05 5.67902
0.535 0.01 -0.0295061 -4.91866e-05 -7.67931e-05 5.65609
0.54 0.01 -0.0293799 -6.36579e-05 -7.65111e-05 5.62819
0.545 0.01 -0.0292269 -7.81393e-05 -7.61567e-05 5.59533
0.55 0.01 -0.029047 -9.25952e-05 -7.57298e-05 5.55754
0.555 0.01 -0.0288404 -0.000106989 -7.52308e-05 5.51484
0.56 0.01 -0.0286073 -0.000121284 -7.46601e-05 5.46729
0.565 0.01 -0.028348 -0.000135442 -7.40182e-05 5.41494
0.57 0.01 -0.0280628 -0.000149426 -7.33058e-05 5.35788
0.575 0.01 -0.027752 -0.000163198 -7.2524e-05 5.29617
0.58 0.01 -0.0274163 -0.000176719 -7.1674e-05 5.22992
0.585 0.01 -0.027056 -0.000189952 -7.0757e-05 5.15923
0.59 0.01 -0.0266718 -0.00020286 -6.97746e-05 5.08422
0.595 0.01 -0.0262644 -0.000215405 -6.87286e-05 5.00502
0.6 0.01 -0.0258345 -0.00022755 -6.76207e-05 4.92177
0.605 0.01 -0.0253829 -0.00023926 -6.64532e-05 4.83462
0.61 0.01 -0.0249105 -0.0002505 -6.52283e-05 4.74372
0.615 0.01 -0.0244181 -0.000261236 -6.39484e-05 4.64926
0.62 0.01 -0.0239067 -0.000271436 -6.26161e-05 4.55141
0.625 0.01 -0.0233774 -0.000281069 -6.12341e-05 4.45037
0.63 0.01 -0.0228313 -0.000290106 -5.98055e-05 4.34632
0.635 0.01 -0.0222694 -0.000298519 -5.83332e-05 4.23949
0.64 0.01 -0.021693 -0.000306283 -5.68204e-05 4.13007
0.645 0.01 -0.0211032 -0.000313374 -5.52705e-05 4.0183
0.65 0.01 -0.0205014 -0.000319772 -5.36868e-05 3.9044
0.655 0.01 -0.0198888 -0.000325458 -5.20729e-05 3.78861
0.66 0.01 -0.0192667 -0.000330416 -5.04324e-05 3.67116
0.665 0.01 -0.0186364 -0.000334632 -4.87689e-05 3.55229
0.67 0.01 -0.0179994 -0.000338098 -4.70862e-05 3.43225
0.675 0.01 -0.017357 -0.000340804 -4.5388e-05 3.31129
0.68 0.01 -0.0167105 -0.000342746 -4.36782e-05 3.18965
0.685 0.01 -0.0160615 -0.000343924 -4.19606e-05 3.06759
0.69 0.01 -0.0154112 -0.000344338 -4.02391e-05 2.94535
0.695 0.01 -0.0147611 -0.000343993 -3.85174e-05 2.82319
0.7 0.01 -0.0141125 -0.000342897 -3.67992e-05 2.70134
0.705 0.01 -0.0134667 -0.000341062 -3.50885e-05 2.58005
0.71 0.01 -0.0128252 -0.0003385 -3.33887e-05 2.45956
0.715 0.01 -0.0121892 -0.000335229 -3.17036e-05 2.34011
0.72 0.01 -0.0115599 -0.000331268 -3.00365e-05 2.22191
0.725 0.01 -0.0109387 -0.000326641 -2.83909e-05 2.10521
0.73 0.01 -0.0103267 -0.000321372 -2.67701e-05 1.9902
0.735 0.01 -0.00972508 -0.000315489 -2.51773e-05 1.87709
0.74 0.01 -0.0091349 -0.000309022 -2.36153e-05 1.76609
0.745 0.01 -0.00855721 -0.000302004 -2.20871e-05 1.65738
0.75 0.01 -0.007993 -0.000294469 -2.05953e-05 1.55113
0.755 0.01 -0.00744318 -0.000286453 -1.91424e-05 1.44753
0.76 0.01 -0.0069086 -0.000277993 -1.77308e-05 1.34671
0.765 0.01 -0.00639006 -0.000269128 -1.63626e-05 1.24883
0.77 0.01 -0.00588826 -0.000259898 -1.50396e-05 1.15402
0.775 0.01 -0.00540385 -0.000250344 -1.37636e-05 1.06239
0.78 0.01 -0.0049374 -0.000240508 -1.25361e-05 0.974064
0.785 0.01 -0.00448941 -0.00023043 -1.13585e-05 0.889121
0.79 0.01 -0.0040603 -0.000220152 -1.02319e-05 0.807646
0.795 0.01 -0.00365042 -0.000209716 -9.15702e-06 0.729706
0.8 0.01 -0.00326003 -0.000199162 -8.1347e-06 0.655356
0.805 0.01 -0.00288934 -0.000188531 -7.1654e-06 0.584637
0.81 0.01 -0.00253848 -0.000177863 -6.24939e-06 0.517577
0.815 0.01 -0.0022075 -0.000167194 -5.38677e-06 0.454191
0.82 0.01 -0.0018964 -0.000156562 -4.57744e-06 0.394484
0.825 0.01 -0.00160509 -0.000146002 -3.82114e-06 0.338447
0.83 0.01 -0.00133343 -0.000135548 -3.11741e-06 0.286059
0.835 0.01 -0.00108123 -0.000125231 -2.46564e-06 0.23729
0.84 0.01 -0.000848229 -0.000115081 -1.86508e-06 0.192097
0.845 0.01 -0.00063411 -0.000105126 -1.31481e-06 0.150429
0.85 0.01 -0.000438515 -9.53898e-05 -8.13807e-07 0.112225
0.855 0.01 -0.000261036 -8.58968e-05 -3.609e-07 0.0774153
0.86 0.01 -0.000101223 -7.66678e-05 4.5178e-08 0.0459213
0.865 0.01 4.14143e-05 -6.77215e-05 4.05796e-07 0.0176576
0.87 0.01 0.000167399 -5.90744e-05 7.22411e-07 -0.00746832
0.875 0.01 0.000277285 -5.07413e-05 9.96558e-07 -0.0295554
0.88 0.01 0.000371658 -4.27348e-05 1.22984e-06 -0.0487082
0.885 0.01 0.000451124 -3.50659e-05 1.42392e-06 -0.0650366
0.89 0.01 0.000516314 -2.77439e-05 1.58052e-06 -0.0786555
0.895 0.01 0.000567878 -2.07774e-05 1.70138e-06 -0.0896839
0.9 0.01 0.000606484 -1.41737e-05 1.78831e-06 -0.0982453
0.905 0.01 0.000632817 -7.94011e-06 1.84313e-06 -0.104467
0.91 0.01 0.00064758 -2.08388e-06 1.86772e-06 -0.108482
0.915 0.01 0.000651494 3.38679e-06 1.86399e-06 -0.110424
0.92 0.01 0.0006453 8.46209e-06 1.83387e-06 -0.110436
0.925 0.01 0.000629763 1.31297e-05 1.77938e-06 -0.108663
0.93 0.01 0.000605678 1.73735e-05 1.70258e-06 -0.10526
0.935 0.01 0.000573878 2.11724e-05 1.60565e-06 -0.100385
0.94 0.01 0.000535243 2.44987e-05 1.49087e-06 -0.0942114
0.945 0.01 0.00049071 2.73156e-05 1.36067e-06 -0.0869201
0.95 0.01 0.000441297 2.95752e-05 1.21772e-06 -0.0787081
0.955 0.01 0.000388116 3.12153e-05 1.06493e-06 -0.0697897
0.96 0.01 0.000332398 3.21553e-05 9.05572e-07 -0.0604002
0.965 0.01 0.000275526 3.2292e-05 7.43378e-07 -0.0507991
0.97 0.01 0.000219062 3.14945e-05 5.82654e-07 -0.041273
0.975 0.01 0.000164783 2.96009e-05 4.28435e-07 -0.0321359
0.98 0.01 0.000114701 2.64201e-05 2.86647e-07 -0.0237237
0.985 0.01 7.10576e-05 2.17581e-05 1.64234e-07 -0.0163742
0.99 0.01 3.62317e-05 1.55151e-05 6.90663e-08 -0.0103748
0.995 0.01 1.24345e-05 8.00381e-06 9.08361e-09 -0.00584424
1 0.01 9.07112e-07 9.08361e-07 -1.09718e-08 -0.00248169
0 0.015 0 0 -0.000725689 0
0.005 0.015 0 0 0 -255.965
0.01 0.015 -0.152852 0.184855 -0.00180043 -79.2583
0.015 0.015 -0.206231 -0.0236716 -0.00184855 -16.6399
0.02 0.015 -0.204572 -0.0573207 -0.00156372 2.31306
0.025 0.015 -0.184556 -0.0522447 -0.00127534 7.92533
0.03 0.015 -0.161048 -0.0416344 -0.00104127 9.24983
0.035 0.015 -0.139035 -0.0324695 -0.000858997 9.1178
0.04 0.015 -0.119805 -0.0255439 -0.000716574 8.49712
0.045 0.015 -0.103393 -0.0204181 -0.000603558 7.74114
0.05 0.015 -0.089476 -0.0165731 -0.000512393 6.98321
0.055 0.015 -0.0776793 -0.0136208 -0.000437826 6.27303
0.06 0.015 -0.067664 -0.0112992 -0.000376185 5.62718
0.065 0.015 -0.059146 -0.00943568 -0.000324834 5.04877
0.07 0.015 -0.0518917 -0.00791518 -0.000281828 4.53541
0.075 0.015 -0.0457093 -0.00665897 -0.000245682 4.0826
0.08 0.015 -0.0404397 -0.00561144 -0.000215238 3.6851
0.085 0.015 -0.0359502 -0.00473194 -0.000189568 3.33765
0.09 0.015 -0.0321292 -0.00398978 -0.000167918 3.03516
0.095 0.015 -0.0288823 -0.0033611 -0.00014967 2.7729
0.1 0.015 -0.0261291 -0.00282695 -0.000134307 2.54652
0.105 0.015 -0.0238011 -0.00237196 -0.0001214 2.35206
0.11 0.015 -0.02184 -0.00198351 -0.000110588 2.18596
0.115 0.015 -0.0201958 -0.00165113 -0.000101565 2.045
0.12 0.015 -0.0188256 -0.00136607 -9.40761e-05 1.92634
0.125 0.015 -0.017693 -0.00112098 -8.79042e-05 1.82742
0.13 0.015 -0.0167668 -0.00090967 -8.28662e-05 1.74601
0.135 0.015 -0.0160201 -0.00072692 -7.88074e-05 1.68013
0.14 0.015 -0.0154303 -0.000568309 -7.55969e-05 1.62804
0.145 0.015 -0.0149779 -0.000430102 -7.31242e-05 1.58821
0.15 0.015 -0.0146462 -0.000309138 -7.12958e-05 1.55933
0.155 0.015 -0.0144212 -0.000202741 -7.00327e-05 1.54021
0.16 0.015 -0.0142907 -0.000108652 -6.92682e-05 1.52986
0.165 0.015 -0.0142445 -2.49601e-05 -6.89461e-05 1.5274
0.17 0.015 -0.014274 4.99467e-05 -6.90185e-05 1.53205
0.175 0.015 -0.0143715 0.000117427 -6.94454e-05 1.54316
0.18 0.015 -0.0145308 0.000178623 -7.01927e-05 1.56014
0.185 0.015 -0.0147464 0.000234495 -7.12316e-05 1.5825
0.19 0.015 -0.0150137 0.000285845 -7.25376e-05 1.60979
0.195 0.015 -0.0153288 0.000333344 -7.40899e-05 1.64164
0.2 0.015 -0.0156881 0.00037755 -7.58709e-05 1.67769
0.205 0.015 -0.0160886 0.000418924 -7.78654e-05 1.71767
0.21 0.015 -0.016528 0.000457848 -8.00601e-05 1.7613
0.215 0.015 -0.0170037 0.000494634 -8.24438e-05 1.80835
0.22 0.015 -0.0175139 0.000529535 -8.50064e-05 1.85861
0.225 0.015 -0.0180568 0.000562755 -8.77391e-05 1.91189
0.23 0.015 -0.0186307 0.000594456 -9.06339e-05 1.968
0.235 0.015 -0.0192341 0.000624767 -9.36836e-05 2.0268
0.24 0.015 -0.0198656 0.000653785 -9.68815e-05 2.08812
0.245 0.015 -0.020524 0.000681583 -0.000100221 2.15182
0.25 0.015 -0.0212079 0.000708211 -0.000103697 2.21775
0.255 0.015 -0.0219162 0.000733704 -0.000107303 2.28579
0.26 0.015 -0.0226478 0.00075808 -0.000111034 2.35581
0.265 0.015 -0.0234013 0.000781346 -0.000114884 2.42766
0.27 0.015 -0.0241757 0.000803496 -0.000118848 2.50123
0.275 0.015 -0.0249698 0.000824518 -0.000122919 2.57638
0.28 0.015 -0.0257824 0.000844391 -0.000127093 2.65299
0.285 0.015 -0.0266123 0.000863089 -0.000131363 2.73092
0.29 0.015 -0.0274582 0.000880579 -0.000135724 2.81004
0.295 0.015 -0.028319 0.000896826 -0.000140169 2.89022
0.3 0.015 -0.0291932 0.000911791 -0.000144692 2.97132
0.305 0.015 -0.0300796 0.000925434 -0.000149287 3.05321
0.31 0.015 -0.0309769 0.000937711 -0.000153947 3.13573
0.315 0.015 -0.0318835 0.000948579 -0.000158664 3.21876
0.32 0.015 -0.0327982 0.000957995 -0.000163432 3.30215
0.325 0.015 -0.0337193 0.000965912 -0.000168244 3.38575
0.33 0.015 -0.0346454 0.000972288 -0.000173092 3.46941
0.335 0.015 -0.035575 0.000977081 -0.000177967 3.55298
0.34 0.015 -0.0365064 0.000980248 -0.000182863 3.6363
0.345 0.015 -0.0374382 0.00098175 -0.00018777 3.71924
0.35 0.015 -0.0383685 0.000981549 -0.00019268 3.80162
0.355 0.015 -0.0392957 0.00097961 -0.000197585 3.8833
0.36 0.015 -0.0402183 0.0009759 -0.000202476 3.96411
0.365 0.015 -0.0411343 0.000970389 -0.000207345 4.04391
0.37 0.015 -0.0420422 0.000963051 -0.000212181 4.12253
0.375 0.015 -0.0429401 0.000953863 -0.000216975 4.19982
0.38 0.015 -0.0438263 0.000942805 -0.000221719 4.27563
0.385 0.015 -0.044699 0.000929861 -0.000226403 4.34979
0.39 0.015 -0.0455565 0.000915019 -0.000231018 4.42216
0.395 0.015 -0.0463969 0.000898273 -0.000235554 4.49258
0.4 0.015 -0.0472186 0.000879619 -0.000240001 4.5609
0.405 0.015 -0.0480196 0.000859058 -0.00024435 4.62698
0.41 0.015 -0.0487983 0.000836595 -0.000248592 4.69067
0.415 0.015 -0.049553 0.000812242 -0.000252717 4.75183
0.42 0.015 -0.0502818 0.000786014 -0.000256715 4.81032
0.425 0.015 -0.0509832 0.000757931 -0.000260577 4.86601
0.43 0.015 -0.0516555 0.000728018 -0.000264294 4.91877
0.435 0.015 -0.0522969 0.000696304 -0.000267858 4.96848
0.44 0.015 -0.052906 0.000662825 -0.000271258 5.015
0.445 0.015 -0.0534811 0.000627622 -0.000274486 5.05823
0.45 0.015 -0.0540209 0.000590739 -0.000277534 5.09805
0.455 0.015 -0.0545237 0.000552226 -0.000280394 5.13437
0.46 0.015 -0.0549882 0.000512139 -0.000283057 5.16708
0.465 0.015 -0.0554132 0.000470538 -0.000285516 5.19609
0.47 0.015 -0.0557972 0.000427489 -0.000287763 5.22131
0.475 0.015 -0.0561391 0.000383063 -0.000289791 5.24267
0.48 0.015 -0.0564377 0.000337334 -0.000291594 5.26009
0.485 0.015 -0.0566921 0.000290383 -0.000293165 5.27351
0.49 0.015 -0.0569012 0.000242294 -0.000294498 5.28287
0.495 0.015 -0.0570641 0.000193159 -0.000295588 5.28812
0.5 0.015 -0.05718 0.000143071 -0.00029643 5.28922
0.505 0.015 -0.0572482 9.21286e-05 -0.000297019 5.28614
0.51 0.015 -0.057268 4.04353e-05 -0.000297352 5.27884
0.515 0.015 -0.0572391 -1.19017e-05 -0.000297424 5.26732
0.52 0.015 -0.0571608 -6.47714e-05 -0.000297233 5.25156
0.525 0.015 -0.057033 -0.000118059 -0.000296777 5.23156
0.53 0.015 -0.0568553 -0.000171646 -0.000296053 5.20733
0.535 0.015 -0.0566278 -0.000225411 -0.000295061 5.17889
0.54 0.015 -0.0563503 -0.00027923 -0.0002938 5.14626
0.545 0.015 -0.0560231 -0.000332975 -0.000292269 5.10947
0.55 0.015 -0.0556463 -0.000386518 -0.000290471 5.06858
0.555 0.015 -0.0552204 -0.000439728 -0.000288405 5.02362
0.56 0.015 -0.0547457 -0.000492471 -0.000286074 4.97467
0.565 0.015 -0.0542229 -0.000544614 -0.000283481 4.92179
0.57 0.015 -0.0536527 -0.000596023 -0.000280628 4.86505
0.575 0.015 -0.0530358 -0.000646563 -0.000277521 4.80455
0.58 0.015 -0.0523734 -0.0006961 -0.000274163 4.74038
0.585 0.015 -0.0516663 -0.000744501 -0.000270561 4.67264
0.59 0.015 -0.0509157 -0.000791633 -0.000266719 4.60144
0.595 0.015 -0.050123 -0.000837366 -0.000262645 4.5269
0.6 0.015 -0.0492896 -0.000881573 -0.000258346 4.44915
0.605 0.015 -0.048417 -0.000924129 -0.00025383 4.36832
0.61 0.015 -0.0475067 -0.000964913 -0.000249105 4.28455
0.615 0.015 -0.0465605 -0.00100381 -0.000244181 4.19798
0.62 0.015 -0.0455802 -0.0010407 -0.000239068 4.10878
0.625 0.015 -0.0445677 -0.00107549 -0.000233775 4.0171
0.63 0.015 -0.0435251 -0.00110807 -0.000228313 3.92311
0.635 0.015 -0.0424543 -0.00113834 -0.000222694 3.82697
0.64 0.015 -0.0413575 -0.00116623 -0.00021693 3.72887
0.645 0.015 -0.040237 -0.00119164 -0.000211033 3.62898
0.65 0.015 -0.039095 -0.00121451 -0.000205014 3.52749
0.655 0.015 -0.037934 -0.00123478 -0.000198888 3.42458
0.66 0.015 -0.0367562 -0.0012524 -0.000192667 3.32044
0.665 0.015 -0.0355641 -0.00126731 -0.000186365 3.21528
0.67 0.015 -0.0343602 -0.00127948 -0.000179994 3.10927
0.675 0.015 -0.033147 -0.00128889 -0.00017357 3.00263
0.68 0.015 -0.031927 -0.00129552 -0.000167106 2.89554
0.685 0.015 -0.0307027 -0.00129938 -0.000160615 2.7882
0.69 0.015 -0.0294765 -0.00130046 -0.000154112 2.6808
0.695 0.015 -0.0282511 -0.00129879 -0.000147611 2.57355
0.7 0.015 -0.0270289 -0.00129439 -0.000141125 2.46664
0.705 0.015 -0.0258122 -0.00128731 -0.000134667 2.36025
0.71 0.015 -0.0246036 -0.00127758 -0.000128252 2.25457
0.715 0.015 -0.0234054 -0.00126528 -0.000121892 2.1498
0.72 0.015 -0.0222199 -0.00125047 -0.0001156 2.04611
0.725 0.015 -0.0210493 -0.00123323 -0.000109387 1.94367
0.73 0.015 -0.0198958 -0.00121366 -0.000103267 1.84266
0.735 0.015 -0.0187614 -0.00119184 -9.72511e-05 1.74325
0.74 0.015 -0.0176482 -0.00116789 -9.13492e-05 1.64558
0.745 0.015 -0.0165581 -0.00114192 -8.55723e-05 1.54982
0.75 0.015 -0.0154928 -0.00111405 -7.99301e-05 1.4561
0.755 0.015 -0.0144541 -0.00108441 -7.44319e-05 1.36457
0.76 0.015 -0.0134434 -0.00105314 -6.90861e-05 1.27535
0.765 0.015 -0.0124623 -0.00102036 -6.39007e-05 1.18857
0.77 0.015 -0.0115121 -0.000986217 -5.88827e-05 1.10433
0.775 0.015 -0.0105939 -0.000950865 -5.40386e-05 1.02273
0.78 0.015 -0.00970882 -0.000914446 -4.93741e-05 0.943875
0.785 0.015 -0.00885785 -0.000877109 -4.48942e-05 0.867841
0.79 0.015 -0.00804177 -0.000839003 -4.06031e-05 0.794701
0.795 0.015 -0.00726123 -0.000800276 -3.65042e-05 0.724518
0.8 0.015 -0.00651679 -0.000761078 -3.26003e-05 0.657346
0.805 0.015 -0.00580885 -0.000721551 -2.88934e-05 0.593228
0.81 0.015 -0.00513769 -0.00068184 -2.53848e-05 0.532197
0.815 0.015 -0.00450346 -0.000642083 -2.2075e-05 0.474275
0.82 0.015 -0.00390619 -0.000602414 -1.89639e-05 0.419476
0.825 0.015 -0.00334579 -0.000562962 -1.60508e-05 0.367804
0.83 0.015 -0.00282205 -0.000523852 -1.33343e-05 0.319251
0.835 0.015 -0.00233464 -0.0004852 -1.08123e-05 0.273804