Title=" Lid Driven Flow"
VARIABLES="X","Y","U","V","psi","xi"
ZONE T= "BOX", I= 201, J=201, F=POINT
0 0 0 0 0.00223397 0
0.005 0 0 0 0 0
0.01 0 0 0 0 0
0.015 0 0 0 0 161.891
0.02 0 0 0 0 176.125
0.025 0 0 0 0 155.613
0.03 0 0 0 0 133.232
0.035 0 0 0 0 115.723
0.04 0 0 0 0 102.878
0.045 0 0 0 0 93.3524
0.05 0 0 0 0 86.0341
0.055 0 0 0 0 80.1899
0.06 0 0 0 0 75.3613
0.065 0 0 0 0 71.2594
0.07 0 0 0 0 67.697
0.075 0 0 0 0 64.548
0.08 0 0 0 0 61.7245
0.085 0 0 0 0 59.1636
0.09 0 0 0 0 56.819
0.095 0 0 0 0 54.656
0.1 0 0 0 0 52.648
0.105 0 0 0 0 50.7746
0.11 0 0 0 0 49.0193
0.115 0 0 0 0 47.3691
0.12 0 0 0 0 45.8133
0.125 0 0 0 0 44.3431
0.13 0 0 0 0 42.951
0.135 0 0 0 0 41.6308
0.14 0 0 0 0 40.3768
0.145 0 0 0 0 39.1843
0.15 0 0 0 0 38.049
0.155 0 0 0 0 36.9669
0.16 0 0 0 0 35.9346
0.165 0 0 0 0 34.9489
0.17 0 0 0 0 34.0067
0.175 0 0 0 0 33.1053
0.18 0 0 0 0 32.2422
0.185 0 0 0 0 31.4149
0.19 0 0 0 0 30.6212
0.195 0 0 0 0 29.8588
0.2 0 0 0 0 29.1259
0.205 0 0 0 0 28.4205
0.21 0 0 0 0 27.7408
0.215 0 0 0 0 27.0851
0.22 0 0 0 0 26.4517
0.225 0 0 0 0 25.8393
0.23 0 0 0 0 25.2463
0.235 0 0 0 0 24.6713
0.24 0 0 0 0 24.1131
0.245 0 0 0 0 23.5705
0.25 0 0 0 0 23.0423
0.255 0 0 0 0 22.5275
0.26 0 0 0 0 22.025
0.265 0 0 0 0 21.5338
0.27 0 0 0 0 21.0532
0.275 0 0 0 0 20.5823
0.28 0 0 0 0 20.1202
0.285 0 0 0 0 19.6663
0.29 0 0 0 0 19.22
0.295 0 0 0 0 18.7805
0.3 0 0 0 0 18.3474
0.305 0 0 0 0 17.92
0.31 0 0 0 0 17.498
0.315 0 0 0 0 17.0809
0.32 0 0 0 0 16.6684
0.325 0 0 0 0 16.26
0.33 0 0 0 0 15.8555
0.335 0 0 0 0 15.4546
0.34 0 0 0 0 15.057
0.345 0 0 0 0 14.6627
0.35 0 0 0 0 14.2714
0.355 0 0 0 0 13.883
0.36 0 0 0 0 13.4974
0.365 0 0 0 0 13.1146
0.37 0 0 0 0 12.7345
0.375 0 0 0 0 12.3571
0.38 0 0 0 0 11.9824
0.385 0 0 0 0 11.6106
0.39 0 0 0 0 11.2417
0.395 0 0 0 0 10.8757
0.4 0 0 0 0 10.5128
0.405 0 0 0 0 10.1531
0.41 0 0 0 0 9.79678
0.415 0 0 0 0 9.44401
0.42 0 0 0 0 9.09498
0.425 0 0 0 0 8.74986
0.43 0 0 0 0 8.40888
0.435 0 0 0 0 8.07224
0.44 0 0 0 0 7.74016
0.445 0 0 0 0 7.41288
0.45 0 0 0 0 7.09061
0.455 0 0 0 0 6.7736
0.46 0 0 0 0 6.46206
0.465 0 0 0 0 6.15624
0.47 0 0 0 0 5.85634
0.475 0 0 0 0 5.56258
0.48 0 0 0 0 5.27517
0.485 0 0 0 0 4.99432
0.49 0 0 0 0 4.72021
0.495 0 0 0 0 4.453
0.5 0 0 0 0 4.19288
0.505 0 0 0 0 3.93997
0.51 0 0 0 0 3.69442
0.515 0 0 0 0 3.45632
0.52 0 0 0 0 3.22579
0.525 0 0 0 0 3.0029
0.53 0 0 0 0 2.7877
0.535 0 0 0 0 2.58024
0.54 0 0 0 0 2.38053
0.545 0 0 0 0 2.18859
0.55 0 0 0 0 2.00438
0.555 0 0 0 0 1.82788
0.56 0 0 0 0 1.65903
0.565 0 0 0 0 1.49776
0.57 0 0 0 0 1.34399
0.575 0 0 0 0 1.1976
0.58 0 0 0 0 1.05847
0.585 0 0 0 0 0.926488
0.59 0 0 0 0 0.80149
0.595 0 0 0 0 0.683322
0.6 0 0 0 0 0.571815
0.605 0 0 0 0 0.466792
0.61 0 0 0 0 0.368064
0.615 0 0 0 0 0.275439
0.62 0 0 0 0 0.188715
0.625 0 0 0 0 0.107688
0.63 0 0 0 0 0.0321495
0.635 0 0 0 0 -0.0381131
0.64 0 0 0 0 -0.103313
0.645 0 0 0 0 -0.163665
0.65 0 0 0 0 -0.219383
0.655 0 0 0 0 -0.270682
0.66 0 0 0 0 -0.317775
0.665 0 0 0 0 -0.360872
0.67 0 0 0 0 -0.400184
0.675 0 0 0 0 -0.435915
0.68 0 0 0 0 -0.46827
0.685 0 0 0 0 -0.497447
0.69 0 0 0 0 -0.523643
0.695 0 0 0 0 -0.547048
0.7 0 0 0 0 -0.567849
0.705 0 0 0 0 -0.586228
0.71 0 0 0 0 -0.602358
0.715 0 0 0 0 -0.616411
0.72 0 0 0 0 -0.628548
0.725 0 0 0 0 -0.638925
0.73 0 0 0 0 -0.647688
0.735 0 0 0 0 -0.654975
0.74 0 0 0 0 -0.660915
0.745 0 0 0 0 -0.665627
0.75 0 0 0 0 -0.66922
0.755 0 0 0 0 -0.671789
0.76 0 0 0 0 -0.673421
0.765 0 0 0 0 -0.674191
0.77 0 0 0 0 -0.674159
0.775 0 0 0 0 -0.673376
0.78 0 0 0 0 -0.67188
0.785 0 0 0 0 -0.669698
0.79 0 0 0 0 -0.666846
0.795 0 0 0 0 -0.663329
0.8 0 0 0 0 -0.659141
0.805 0 0 0 0 -0.654271
0.81 0 0 0 0 -0.648696
0.815 0 0 0 0 -0.642388
0.82 0 0 0 0 -0.635315
0.825 0 0 0 0 -0.627439
0.83 0 0 0 0 -0.618719
0.835 0 0 0 0 -0.609115
0.84 0 0 0 0 -0.598583
0.845 0 0 0 0 -0.587086
0.85 0 0 0 0 -0.574586
0.855 0 0 0 0 -0.56105
0.86 0 0 0 0 -0.546453
0.865 0 0 0 0 -0.530775
0.87 0 0 0 0 -0.514007
0.875 0 0 0 0 -0.496147
0.88 0 0 0 0 -0.477206
0.885 0 0 0 0 -0.457207
0.89 0 0 0 0 -0.436185
0.895 0 0 0 0 -0.41419
0.9 0 0 0 0 -0.391288
0.905 0 0 0 0 -0.367558
0.91 0 0 0 0 -0.343097
0.915 0 0 0 0 -0.318018
0.92 0 0 0 0 -0.292451
0.925 0 0 0 0 -0.266546
0.93 0 0 0 0 -0.240468
0.935 0 0 0 0 -0.214403
0.94 0 0 0 0 -0.188555
0.945 0 0 0 0 -0.163149
0.95 0 0 0 0 -0.138428
0.955 0 0 0 0 -0.114657
0.96 0 0 0 0 -0.0921242
0.965 0 0 0 0 -0.0711374
0.97 0 0 0 0 -0.052028
0.975 0 0 0 0 -0.0351476
0.98 0 0 0 0 -0.0208633
0.985 0 0 0 0 -0.00954367
0.99 0 0 0 0 -0.00152666
0.995 0 0 0 0 0.00295787
1 0 0 0 0 0.00396533
0 0.005 0 0 0 0
0.005 0.005 0 0 0 0
0.01 0.005 0 0 0 73.7271
0.015 0.005 0 0 0 62.0403
0.02 0.005 0 0 0 45.6553
0.025 0.005 0 0 0 33.8671
0.03 0.005 0 0 0 25.9743
0.035 0.005 0 0 0 20.5752
0.04 0.005 0 0 0 16.7216
0.045 0.005 0 0 0 13.8547
0.05 0.005 0 0 0 11.6481
0.055 0.005 0 0 0 9.90537
0.06 0.005 0 0 0 8.50253
0.065 0.005 0 0 0 7.35734
0.07 0.005 0 0 0 6.41279
0.075 0.005 0 0 0 5.62775
0.08 0.005 0 0 0 4.97155
0.085 0.005 0 0 0 4.4207
0.09 0.005 0 0 0 3.95685
0.095 0.005 0 0 0 3.56542
0.1 0.005 0 0 0 3.23464
0.105 0.005 0 0 0 2.95496
0.11 0.005 0 0 0 2.71854
0.115 0.005 0 0 0 2.51889
0.12 0.005 0 0 0 2.35065
0.125 0.005 0 0 0 2.20934
0.13 0.005 0 0 0 2.0912
0.135 0.005 0 0 0 1.9931
0.14 0.005 0 0 0 1.91238
0.145 0.005 0 0 0 1.84681
0.15 0.005 0 0 0 1.79449
0.155 0.005 0 0 0 1.75383
0.16 0.005 0 0 0 1.72345
0.165 0.005 0 0 0 1.7022
0.17 0.005 0 0 0 1.68908
0.175 0.005 0 0 0 1.68324
0.18 0.005 0 0 0 1.68395
0.185 0.005 0 0 0 1.69059
0.19 0.005 0 0 0 1.70261
0.195 0.005 0 0 0 1.71955
0.2 0.005 0 0 0 1.74099
0.205 0.005 0 0 0 1.76658
0.21 0.005 0 0 0 1.796
0.215 0.005 0 0 0 1.82897
0.22 0.005 0 0 0 1.86525
0.225 0.005 0 0 0 1.90461
0.23 0.005 0 0 0 1.94685
0.235 0.005 0 0 0 1.99179
0.24 0.005 0 0 0 2.03924
0.245 0.005 0 0 0 2.08906
0.25 0.005 0 0 0 2.1411
0.255 0.005 0 0 0 2.1952
0.26 0.005 0 0 0 2.25123
0.265 0.005 0 0 0 2.30905
0.27 0.005 0 0 0 2.36855
0.275 0.005 0 0 0 2.42958
0.28 0.005 0 0 0 2.49202
0.285 0.005 0 0 0 2.55573
0.29 0.005 0 0 0 2.6206
0.295 0.005 0 0 0 2.6865
0.3 0.005 0 0 0 2.75329
0.305 0.005 0 0 0 2.82084
0.31 0.005 0 0 0 2.88902
0.315 0.005 0 0 0 2.9577
0.32 0.005 0 0 0 3.02674
0.325 0.005 0 0 0 3.09601
0.33 0.005 0 0 0 3.16535
0.335 0.005 0 0 0 3.23463
0.34 0.005 0 0 0 3.30371
0.345 0.005 0 0 0 3.37244
0.35 0.005 0 0 0 3.44068
0.355 0.005 0 0 0 3.50828
0.36 0.005 0 0 0 3.57509
0.365 0.005 0 0 0 3.64095
0.37 0.005 0 0 0 3.70573
0.375 0.005 0 0 0 3.76928
0.38 0.005 0 0 0 3.83143
0.385 0.005 0 0 0 3.89206
0.39 0.005 0 0 0 3.951
0.395 0.005 0 0 0 4.00811
0.4 0.005 0 0 0 4.06326
0.405 0.005 0 0 0 4.11629
0.41 0.005 0 0 0 4.16708
0.415 0.005 0 0 0 4.21547
0.42 0.005 0 0 0 4.26135
0.425 0.005 0 0 0 4.30459
0.43 0.005 0 0 0 4.34505
0.435 0.005 0 0 0 4.38263
0.44 0.005 0 0 0 4.41721
0.445 0.005 0 0 0 4.44868
0.45 0.005 0 0 0 4.47693
0.455 0.005 0 0 0 4.50189
0.46 0.005 0 0 0 4.52345
0.465 0.005 0 0 0 4.54153
0.47 0.005 0 0 0 4.55606
0.475 0.005 0 0 0 4.56698
0.48 0.005 0 0 0 4.57423
0.485 0.005 0 0 0 4.57776
0.49 0.005 0 0 0 4.57753
0.495 0.005 0 0 0 4.57351
0.5 0.005 0 0 0 4.56567
0.505 0.005 0 0 0 4.55401
0.51 0.005 0 0 0 4.53852
0.515 0.005 0 0 0 4.5192
0.52 0.005 0 0 0 4.49608
0.525 0.005 0 0 0 4.46917
0.53 0.005 0 0 0 4.43852
0.535 0.005 0 0 0 4.40417
0.54 0.005 0 0 0 4.36618
0.545 0.005 0 0 0 4.3246
0.55 0.005 0 0 0 4.27951
0.555 0.005 0 0 0 4.23099
0.56 0.005 0 0 0 4.17914
0.565 0.005 0 0 0 4.12406
0.57 0.005 0 0 0 4.06584
0.575 0.005 0 0 0 4.00462
0.58 0.005 0 0 0 3.9405
0.585 0.005 0 0 0 3.87363
0.59 0.005 0 0 0 3.80414
0.595 0.005 0 0 0 3.73216
0.6 0.005 0 0 0 3.65786
0.605 0.005 0 0 0 3.58139
0.61 0.005 0 0 0 3.5029
0.615 0.005 0 0 0 3.42255
0.62 0.005 0 0 0 3.34052
0.625 0.005 0 0 0 3.25697
0.63 0.005 0 0 0 3.17206
0.635 0.005 0 0 0 3.08598
0.64 0.005 0 0 0 2.9989
0.645 0.005 0 0 0 2.91099
0.65 0.005 0 0 0 2.82241
0.655 0.005 0 0 0 2.73335
0.66 0.005 0 0 0 2.64398
0.665 0.005 0 0 0 2.55446
0.67 0.005 0 0 0 2.46495
0.675 0.005 0 0 0 2.37562
0.68 0.005 0 0 0 2.28664
0.685 0.005 0 0 0 2.19814
0.69 0.005 0 0 0 2.11028
0.695 0.005 0 0 0 2.02321
0.7 0.005 0 0 0 1.93705
0.705 0.005 0 0 0 1.85195
0.71 0.005 0 0 0 1.76804
0.715 0.005 0 0 0 1.68542
0.72 0.005 0 0 0 1.60421
0.725 0.005 0 0 0 1.52452
0.73 0.005 0 0 0 1.44644
0.735 0.005 0 0 0 1.37007
0.74 0.005 0 0 0 1.29548
0.745 0.005 0 0 0 1.22276
0.75 0.005 0 0 0 1.15197
0.755 0.005 0 0 0 1.08318
0.76 0.005 0 0 0 1.01643
0.765 0.005 0 0 0 0.95178
0.77 0.005 0 0 0 0.889259
0.775 0.005 0 0 0 0.828902
0.78 0.005 0 0 0 0.770735
0.785 0.005 0 0 0 0.714776
0.79 0.005 0 0 0 0.661039
0.795 0.005 0 0 0 0.609529
0.8 0.005 0 0 0 0.560247
0.805 0.005 0 0 0 0.513188
0.81 0.005 0 0 0 0.468342
0.815 0.005 0 0 0 0.425694
0.82 0.005 0 0 0 0.385224
0.825 0.005 0 0 0 0.346909
0.83 0.005 0 0 0 0.310721
0.835 0.005 0 0 0 0.276628
0.84 0.005 0 0 0 0.244597
0.845 0.005 0 0 0 0.21459
0.85 0.005 0 0 0 0.186566
0.855 0.005 0 0 0 0.160484
0.86 0.005 0 0 0 0.136298
0.865 0.005 0 0 0 0.113964
0.87 0.005 0 0 0 0.093433
0.875 0.005 0 0 0 0.0746566
0.88 0.005 0 0 0 0.0575852
0.885 0.005 0 0 0 0.042168
0.89 0.005 0 0 0 0.0283537
0.895 0.005 0 0 0 0.0160906
0.9 0.005 0 0 0 0.00532641
0.905 0.005 0 0 0 -0.00399171
0.91 0.005 0 0 0 -0.011917
0.915 0.005 0 0 0 -0.0185032
0.92 0.005 0 0 0 -0.0238052
0.925 0.005 0 0 0 -0.0278788
0.93 0.005 0 0 0 -0.0307817
0.935 0.005 0 0 0 -0.032574
0.94 0.005 0 0 0 -0.0333188
0.945 0.005 0 0 0 -0.0330843
0.95 0.005 0 0 0 -0.0319449
0.955 0.005 0 0 0 -0.0299836
0.96 0.005 0 0 0 -0.0272954
0.965 0.005 0 0 0 -0.0239913
0.97 0.005 0 0 0 -0.0202043
0.975 0.005 0 0 0 -0.0160977
0.98 0.005 0 0 0 -0.0118755
0.985 0.005 0 0 0 -0.00779688
0.99 0.005 0 0 0 -0.00419113
0.995 0.005 0 0 0 -0.00146112
1 0.005 0 0 0 -2.35006e-05
0 0.01 0 0 -2.35006e-05 0
0.005 0.01 0 0 0 -326.273
0.01 0.01 -0.180013 0.0775503 -0.000921589 -44.429
0.015 0.01 -0.184726 -0.0350897 -0.000775503 9.50116
0.02 0.01 -0.156135 -0.0352165 -0.000570691 19.0968
0.025 0.01 -0.127251 -0.0246012 -0.000423338 18.9812
0.03 0.01 -0.103894 -0.0166148 -0.000324679 16.8302
0.035 0.01 -0.0858108 -0.0115659 -0.000257191 14.5218
0.04 0.01 -0.0717835 -0.00840073 -0.000209021 12.4851
0.045 0.01 -0.0607415 -0.00634197 -0.000173183 10.7721
0.05 0.01 -0.051904 -0.0049366 -0.000145601 9.34546
0.055 0.01 -0.0447256 -0.00393192 -0.000123817 8.15481
0.06 0.01 -0.0388244 -0.00318503 -0.000106282 7.15607
0.065 0.01 -0.0339272 -0.00261216 -9.19667e-05 6.31387
0.07 0.01 -0.0298338 -0.00216198 -8.01598e-05 5.60047
0.075 0.01 -0.0263933 -0.00180155 -7.03468e-05 4.99401
0.08 0.01 -0.0234899 -0.00150881 -6.21442e-05 4.47708
0.085 0.01 -0.0210321 -0.00126835 -5.52586e-05 4.03565
0.09 0.01 -0.0189472 -0.00106909 -4.94606e-05 3.65824
0.095 0.01 -0.0171762 -0.000902751 -4.45676e-05 3.33541
0.1 0.01 -0.015671 -0.000763057 -4.04329e-05 3.0593
0.105 0.01 -0.0143916 -0.000645119 -3.69369e-05 2.82331
0.11 0.01 -0.0133051 -0.000545078 -3.39816e-05 2.62191
0.115 0.01 -0.012384 -0.000459846 -3.1486e-05 2.45041
0.12 0.01 -0.011605 -0.00038693 -2.9383e-05 2.30483
0.125 0.01 -0.0109489 -0.000324298 -2.76166e-05 2.18181
0.13 0.01 -0.0103991 -0.000270284 -2.61399e-05 2.07845
0.135 0.01 -0.00994176 -0.000223514 -2.49136e-05 1.9923
0.14 0.01 -0.00956514 -0.00018285 -2.39046e-05 1.92125
0.145 0.01 -0.00925919 -0.000147346 -2.3085e-05 1.8635
0.15 0.01 -0.00901539 -0.000116214 -2.24311e-05 1.81749
0.155 0.01 -0.00882645 -8.8792e-05 -2.19228e-05 1.7819
0.16 0.01 -0.00868613 -6.45284e-05 -2.1543e-05 1.75557
0.165 0.01 -0.00858909 -4.29583e-05 -2.12774e-05 1.73751
0.17 0.01 -0.00853074 -2.36907e-05 -2.11134e-05 1.72687
0.175 0.01 -0.00850713 -6.3967e-06 -2.10404e-05 1.7229
0.18 0.01 -0.00851484 9.20127e-06 -2.10493e-05 1.72495
0.185 0.01 -0.00855092 2.33371e-05 -2.11323e-05 1.73247
0.19 0.01 -0.00861281 3.62081e-05 -2.12826e-05 1.74497
0.195 0.01 -0.00869826 4.79805e-05 -2.14943e-05 1.76201
0.2 0.01 -0.00880532 5.87944e-05 -2.17623e-05 1.78321
0.205 0.01 -0.00893226 6.87677e-05 -2.20822e-05 1.80824
0.21 0.01 -0.00907757 7.79993e-05 -2.245e-05 1.83681
0.215 0.01 -0.00923987 8.6572e-05 -2.28621e-05 1.86863
0.22 0.01 -0.00941797 9.45551e-05 -2.33156e-05 1.90348
0.225 0.01 -0.00961075 0.000102006 -2.38076e-05 1.94113
0.23 0.01 -0.00981722 0.000108972 -2.43356e-05 1.98138
0.235 0.01 -0.0100365 0.000115492 -2.48973e-05 2.02406
0.24 0.01 -0.0102676 0.000121599 -2.54905e-05 2.06898
0.245 0.01 -0.0105099 0.000127317 -2.61133e-05 2.11599
0.25 0.01 -0.0107625 0.000132668 -2.67637e-05 2.16494
0.255 0.01 -0.0110248 0.000137666 -2.74399e-05 2.21567
0.26 0.01 -0.011296 0.000142325 -2.81403e-05 2.26806
0.265 0.01 -0.0115754 0.000146652 -2.88632e-05 2.32195
0.27 0.01 -0.0118625 0.000150653 -2.96069e-05 2.37723
0.275 0.01 -0.0121566 0.000154334 -3.03697e-05 2.43376
0.28 0.01 -0.012457 0.000157694 -3.11502e-05 2.49141
0.285 0.01 -0.012763 0.000160735 -3.19467e-05 2.55006
0.29 0.01 -0.0130742 0.000163455 -3.27576e-05 2.60957
0.295 0.01 -0.0133897 0.000165853 -3.35813e-05 2.66982
0.3 0.01 -0.013709 0.000167924 -3.44162e-05 2.73069
0.305 0.01 -0.0140314 0.000169665 -3.52606e-05 2.79204
0.31 0.01 -0.0143563 0.000171073 -3.61129e-05 2.85374
0.315 0.01 -0.014683 0.000172143 -3.69714e-05 2.91568
0.32 0.01 -0.0150109 0.000172869 -3.78344e-05 2.97771
0.325 0.01 -0.0153392 0.000173248 -3.87001e-05 3.0397
0.33 0.01 -0.0156673 0.000173275 -3.95669e-05 3.10154
0.335 0.01 -0.0159945 0.000172945 -4.0433e-05 3.16307
0.34 0.01 -0.0163202 0.000172256 -4.12965e-05 3.22418
0.345 0.01 -0.0166435 0.000171202 -4.21557e-05 3.28472
0.35 0.01 -0.016964 0.000169781 -4.30087e-05 3.34457
0.355 0.01 -0.0172807 0.00016799 -4.38536e-05 3.4036
0.36 0.01 -0.017593 0.000165829 -4.46887e-05 3.46166
0.365 0.01 -0.0179003 0.000163294 -4.55121e-05 3.51863
0.37 0.01 -0.0182018 0.000160387 -4.63218e-05 3.57438
0.375 0.01 -0.0184969 0.000157108 -4.71161e-05 3.62877
0.38 0.01 -0.0187847 0.000153457 -4.78931e-05 3.68168
0.385 0.01 -0.0190647 0.000149437 -4.86509e-05 3.73298
0.39 0.01 -0.0193362 0.000145052 -4.93877e-05 3.78255
0.395 0.01 -0.0195984 0.000140305 -5.01016e-05 3.83025
0.4 0.01 -0.0198508 0.000135202 -5.0791e-05 3.87599
0.405 0.01 -0.0200926 0.000129749 -5.14539e-05 3.91962
0.41 0.01 -0.0203233 0.000123953 -5.20887e-05 3.96105
0.415 0.01 -0.0205422 0.000117823 -5.26937e-05 4.00016
0.42 0.01 -0.0207488 0.000111368 -5.32672e-05 4.03684
0.425 0.01 -0.0209425 0.000104599 -5.38076e-05 4.071
0.43 0.01 -0.0211226 9.75269e-05 -5.43135e-05 4.10253
0.435 0.01 -0.0212887 9.01649e-05 -5.47832e-05 4.13135
0.44 0.01 -0.0214403 8.25265e-05 -5.52154e-05 4.15736
0.445 0.01 -0.021577 7.46264e-05 -5.56088e-05 4.18049
0.45 0.01 -0.0216981 6.64804e-05 -5.5962e-05 4.20066
0.455 0.01 -0.0218035 5.81051e-05 -5.62739e-05 4.2178
0.46 0.01 -0.0218926 4.95181e-05 -5.65434e-05 4.23184
0.465 0.01 -0.0219651 4.0738e-05 -5.67695e-05 4.24274
0.47 0.01 -0.0220208 3.17841e-05 -5.69512e-05 4.25044
0.475 0.01 -0.0220593 2.26765e-05 -5.70877e-05 4.2549
0.48 0.01 -0.0220805 1.34361e-05 -5.71783e-05 4.25608
0.485 0.01 -0.022084 4.08436e-06 -5.72224e-05 4.25395
0.49 0.01 -0.0220699 -5.35647e-06 -5.72195e-05 4.24851
0.495 0.01 -0.0220379 -1.48637e-05 -5.71692e-05 4.23972
0.5 0.01 -0.021988 -2.44143e-05 -5.70713e-05 4.22759
0.505 0.01 -0.0219202 -3.39847e-05 -5.69255e-05 4.21212
0.51 0.01 -0.0218344 -4.3551e-05 -5.67319e-05 4.19332
0.515 0.01 -0.0217308 -5.30892e-05 -5.64904e-05 4.17122
0.52 0.01 -0.0216095 -6.25751e-05 -5.62014e-05 4.14582
0.525 0.01 -0.0214706 -7.19846e-05 -5.58651e-05 4.11718
0.53 0.01 -0.0213143 -8.12935e-05 -5.5482e-05 4.08533
0.535 0.01 -0.0211408 -9.04778e-05 -5.50526e-05 4.05031
0.54 0.01 -0.0209505 -9.95138e-05 -5.45776e-05 4.0122
0.545 0.01 -0.0207436 -0.000108378 -5.40579e-05 3.97105
0.55 0.01 -0.0205204 -0.000117048 -5.34943e-05 3.92694
0.555 0.01 -0.0202815 -0.0001255 -5.28878e-05 3.87994
0.56 0.01 -0.0200273 -0.000133714 -5.22397e-05 3.83013
0.565 0.01 -0.0197582 -0.000141669 -5.15511e-05 3.77762
0.57 0.01 -0.0194747 -0.000149343 -5.08234e-05 3.7225
0.575 0.01 -0.0191774 -0.000156718 -5.00581e-05 3.66487
0.58 0.01 -0.0188669 -0.000163776 -4.92567e-05 3.60485
0.585 0.01 -0.0185438 -0.000170499 -4.84208e-05 3.54255
0.59 0.01 -0.0182087 -0.000176872 -4.75521e-05 3.47808
0.595 0.01 -0.0178623 -0.00018288 -4.66525e-05 3.41158
0.6 0.01 -0.0175054 -0.00018851 -4.57237e-05 3.34317
0.605 0.01 -0.0171385 -0.000193748 -4.47678e-05 3.27299
0.61 0.01 -0.0167625 -0.000198586 -4.37866e-05 3.20117
0.615 0.01 -0.0163782 -0.000203013 -4.27823e-05 3.12785
0.62 0.01 -0.0159862 -0.000207023 -4.17569e-05 3.05316
0.625 0.01 -0.0155873 -0.000210608 -4.07125e-05 2.97726
0.63 0.01 -0.0151824 -0.000213765 -3.96512e-05 2.90029
0.635 0.01 -0.0147722 -0.000216491 -3.85752e-05 2.82238
0.64 0.01 -0.0143576 -0.000218784 -3.74866e-05 2.74369
0.645 0.01 -0.0139392 -0.000220644 -3.63877e-05 2.66436
0.65 0.01 -0.013518 -0.000222073 -3.52805e-05 2.58454
0.655 0.01 -0.0130947 -0.000223075 -3.41672e-05 2.50436
0.66 0.01 -0.0126701 -0.000223654 -3.305e-05 2.42397
0.665 0.01 -0.0122449 -0.000223816 -3.1931e-05 2.34351
0.67 0.01 -0.01182 -0.00022357 -3.08122e-05 2.26312
0.675 0.01 -0.011396 -0.000222923 -2.96956e-05 2.18293
0.68 0.01 -0.0109737 -0.000221886 -2.85832e-05 2.10308
0.685 0.01 -0.0105538 -0.000220471 -2.7477e-05 2.02368
0.69 0.01 -0.0101369 -0.00021869 -2.63787e-05 1.94488
0.695 0.01 -0.00972382 -0.000216557 -2.52903e-05 1.86677
0.7 0.01 -0.00931506 -0.000214086 -2.42134e-05 1.78949
0.705 0.01 -0.00891127 -0.000211293 -2.31496e-05 1.71313
0.71 0.01 -0.00851303 -0.000208194 -2.21006e-05 1.63782
0.715 0.01 -0.00812089 -0.000204805 -2.10679e-05 1.56364
0.72 0.01 -0.00773536 -0.000201145 -2.00528e-05 1.49069
0.725 0.01 -0.00735693 -0.00019723 -1.90566e-05 1.41906
0.73 0.01 -0.00698606 -0.000193079 -1.80806e-05 1.34883
0.735 0.01 -0.00662315 -0.000188711 -1.7126e-05 1.28008
0.74 0.01 -0.00626861 -0.000184144 -1.61936e-05 1.21289
0.745 0.01 -0.00592277 -0.000179397 -1.52846e-05 1.14731
0.75 0.01 -0.00558597 -0.000174488 -1.43998e-05 1.0834
0.755 0.01 -0.00525847 -0.000169437 -1.35399e-05 1.02123
0.76 0.01 -0.00494055 -0.000164261 -1.27055e-05 0.960829
0.765 0.01 -0.00463241 -0.000158978 -1.18973e-05 0.902247
0.77 0.01 -0.00433424 -0.000153606 -1.11158e-05 0.845517
0.775 0.01 -0.0040462 -0.000148162 -1.03613e-05 0.79067
0.78 0.01 -0.0037684 -0.000142663 -9.63424e-06 0.737729
0.785 0.01 -0.00350095 -0.000137126 -8.93475e-06 0.686712
0.79 0.01 -0.0032439 -0.000131564 -8.26303e-06 0.637635
0.795 0.01 -0.0029973 -0.000125994 -7.61914e-06 0.590504
0.8 0.01 -0.00276115 -0.00012043 -7.00311e-06 0.545324
0.805 0.01 -0.00253544 -0.000114884 -6.41487e-06 0.502094
0.81 0.01 -0.00232012 -0.00010937 -5.85429e-06 0.460807
0.815 0.01 -0.00211515 -0.000103899 -5.32118e-06 0.421454
0.82 0.01 -0.00192042 -9.8482e-05 -4.8153e-06 0.384022
0.825 0.01 -0.00173584 -9.31295e-05 -4.33636e-06 0.348493
0.83 0.01 -0.0015613 -8.78508e-05 -3.88401e-06 0.314847
0.835 0.01 -0.00139664 -8.26543e-05 -3.45785e-06 0.283059
0.84 0.01 -0.00124172 -7.75477e-05 -3.05745e-06 0.253103
0.845 0.01 -0.00109636 -7.2538e-05 -2.68236e-06 0.224949
0.85 0.01 -0.000960399 -6.76313e-05 -2.33206e-06 0.198566
0.855 0.01 -0.00083363 -6.2833e-05 -2.00603e-06 0.173918
0.86 0.01 -0.000715857 -5.81478e-05 -1.70371e-06 0.150971
0.865 0.01 -0.000606869 -5.35797e-05 -1.42453e-06 0.129687
0.87 0.01 -0.000506447 -4.91319e-05 -1.16789e-06 0.110025
0.875 0.01 -0.00041437 -4.48075e-05 -9.33185e-07 0.091945
0.88 0.01 -0.000330405 -4.06085e-05 -7.19791e-07 0.0754053
0.885 0.01 -0.000254319 -3.65369e-05 -5.27075e-07 0.0603627
0.89 0.01 -0.000185874 -3.25942e-05 -3.54397e-07 0.0467729
0.895 0.01 -0.000124827 -2.87817e-05 -2.01108e-07 0.034591
0.9 0.01 -7.09328e-05 -2.51005e-05 -6.65559e-08 0.0237711
0.905 0.01 -2.39423e-05 -2.15518e-05 4.99199e-08 0.0142664
0.91 0.01 1.63969e-05 -1.8137e-05 1.48985e-07 0.0060289
0.915 0.01 5.03419e-05 -1.4858e-05 2.31312e-07 -0.000990286
0.92 0.01 7.81553e-05 -1.17173e-05 2.97586e-07 -0.00684168
0.925 0.01 0.000100107 -8.71862e-06 3.48505e-07 -0.0115775
0.93 0.01 0.000116476 -5.86695e-06 3.8479e-07 -0.0152524
0.935 0.01 0.000127556 -3.16953e-06 4.07191e-07 -0.0179239
0.94 0.01 0.000133656 -6.36343e-07 4.165e-07 -0.0196531
0.945 0.01 0.00013511 1.71886e-06 4.13567e-07 -0.0205065
0.95 0.01 0.000132282 3.87723e-06 3.99323e-07 -0.0205566
0.955 0.01 0.000125579 5.81308e-06 3.74805e-07 -0.0198841
0.96 0.01 0.00011546 7.49142e-06 3.412e-07 -0.0185804
0.965 0.01 0.000102457 8.86459e-06 2.99897e-07 -0.0167498
0.97 0.01 8.71937e-05 9.86754e-06 2.52559e-07 -0.0145131
0.975 0.01 7.04162e-05 1.04115e-05 2.01225e-07 -0.0120109
0.98 0.01 5.30239e-05 1.03764e-05 1.48446e-07 -0.00940581
0.985 0.01 3.61043e-05 9.6057e-06 9.7462e-08 -0.00688134
0.99 0.01 2.09552e-05 7.91979e-06 5.23894e-08 -0.0046289
0.995 0.01 9.04886e-06 5.20957e-06 1.8264e-08 -0.00280468
1 0.01 1.822e-06 1.8264e-06 2.93612e-10 -0.0014124
0 0.015 0 0 -0.0014576 0
0.005 0.015 0 0 0 -255.99
0.01 0.015 -0.152777 0.184726 -0.00180013 -79.2917
0.015 0.015 -0.20603 -0.023878 -0.00184726 -16.6506
0.02 0.015 -0.204273 -0.057475 -0.00156135 2.34034
0.025 0.015 -0.184261 -0.0522402 -0.00127251 7.98098
0.03 0.015 -0.160889 -0.0414404 -0.00103894 9.32351
0.035 0.015 -0.139141 -0.0321109 -0.000858108 9.20537
0.04 0.015 -0.120276 -0.0250693 -0.000717835 8.59919
0.045 0.015 -0.104293 -0.0198796 -0.000607415 7.8604
0.05 0.015 -0.090835 -0.0160158 -0.00051904 7.12259
0.055 0.015 -0.0794974 -0.0130795 -0.000447256 6.4347
0.06 0.015 -0.0699189 -0.0107984 -0.000388244 5.81219
0.065 0.015 -0.0617999 -0.00899062 -0.000339272 5.25703
0.07 0.015 -0.054897 -0.00753386 -0.000298337 4.76583
0.075 0.015 -0.0490136 -0.00634389 -0.000263933 4.33332
0.08 0.015 -0.0439894 -0.00536121 -0.000234898 3.95374
0.085 0.015 -0.0396931 -0.0045426 -0.00021032 3.62147
0.09 0.015 -0.0360165 -0.00385581 -0.000189472 3.3313
0.095 0.015 -0.0328693 -0.0032762 -0.000171762 3.07847
0.1 0.015 -0.0301762 -0.0027846 -0.000156709 2.85874
0.105 0.015 -0.0278736 -0.0023658 -0.000143915 2.66831
0.11 0.015 -0.025908 -0.00200758 -0.000133051 2.50381
0.115 0.015 -0.0242341 -0.00170004 -0.000123839 2.36228
0.12 0.015 -0.0228133 -0.00143505 -0.00011605 2.2411
0.125 0.015 -0.0216128 -0.00120591 -0.000109488 2.13796
0.13 0.015 -0.0206047 -0.00100707 -0.00010399 2.05083
0.135 0.015 -0.0197649 -0.000833895 -9.94171e-05 1.97795
0.14 0.015 -0.0190729 -0.000682522 -9.56509e-05 1.91775
0.145 0.015 -0.0185113 -0.000549701 -9.25915e-05 1.86887
0.15 0.015 -0.0180649 -0.000432701 -9.01535e-05 1.8301
0.155 0.015 -0.0177206 -0.000329221 -8.82641e-05 1.8004
0.16 0.015 -0.0174674 -0.000237319 -8.68609e-05 1.77885
0.165 0.015 -0.0172955 -0.00015535 -8.58906e-05 1.76462
0.17 0.015 -0.0171965 -8.19256e-05 -8.53071e-05 1.75702
0.175 0.015 -0.0171633 -1.58664e-05 -8.5071e-05 1.75541
0.18 0.015 -0.0171895 4.38258e-05 -8.51481e-05 1.75924
0.185 0.015 -0.0172695 9.79974e-05 -8.55089e-05 1.76802
0.19 0.015 -0.0173988 0.000147366 -8.61278e-05 1.78132
0.195 0.015 -0.0175729 0.000192538 -8.69823e-05 1.79875
0.2 0.015 -0.0177882 0.000234029 -8.80529e-05 1.81997
0.205 0.015 -0.0180414 0.000272272 -8.93224e-05 1.84468
0.21 0.015 -0.0183295 0.000307634 -9.07754e-05 1.87258
0.215 0.015 -0.0186501 0.000340422 -9.23985e-05 1.90344
0.22 0.015 -0.0190006 0.000370895 -9.41795e-05 1.93701
0.225 0.015 -0.019379 0.000399268 -9.61073e-05 1.9731
0.23 0.015 -0.0197833 0.00042572 -9.8172e-05 2.0115
0.235 0.015 -0.0202116 0.000450398 -0.000100364 2.05204
0.24 0.015 -0.0206623 0.000473424 -0.000102676 2.09454
0.245 0.015 -0.0211338 0.000494896 -0.000105099 2.13885
0.25 0.015 -0.0216246 0.000514891 -0.000107625 2.18482
0.255 0.015 -0.0221333 0.000533472 -0.000110247 2.23229
0.26 0.015 -0.0226584 0.000550686 -0.00011296 2.28113
0.265 0.015 -0.0231986 0.00056657 -0.000115754 2.3312
0.27 0.015 -0.0237526 0.000581147 -0.000118625 2.38236
0.275 0.015 -0.0243192 0.000594437 -0.000121566 2.4345
0.28 0.015 -0.0248969 0.000606447 -0.00012457 2.48747
0.285 0.015 -0.0254846 0.000617181 -0.000127631 2.54116
0.29 0.015 -0.026081 0.000626639 -0.000130742 2.59543
0.295 0.015 -0.0266848 0.000634816 -0.000133897 2.65017
0.3 0.015 -0.0272948 0.000641704 -0.00013709 2.70524
0.305 0.015 -0.0279096 0.000647292 -0.000140314 2.76052
0.31 0.015 -0.028528 0.000651569 -0.000143563 2.8159
0.315 0.015 -0.0291488 0.000654522 -0.00014683 2.87125
0.32 0.015 -0.0297705 0.000656138 -0.000150109 2.92643
0.325 0.015 -0.030392 0.000656404 -0.000153392 2.98135
0.33 0.015 -0.0310118 0.000655308 -0.000156673 3.03586
0.335 0.015 -0.0316287 0.000652837 -0.000159946 3.08985
0.34 0.015 -0.0322414 0.000648983 -0.000163202 3.14319
0.345 0.015 -0.0328485 0.000643735 -0.000166436 3.19578
0.35 0.015 -0.0334487 0.000637089 -0.00016964 3.24748
0.355 0.015 -0.0340406 0.000629039 -0.000172807 3.29818
0.36 0.015 -0.034623 0.000619584 -0.000175931 3.34776
0.365 0.015 -0.0351945 0.000608725 -0.000179004 3.39612
0.37 0.015 -0.0357538 0.000596465 -0.000182019 3.44312
0.375 0.015 -0.0362995 0.000582812 -0.000184969 3.48867
0.38 0.015 -0.0368305 0.000567775 -0.000187848 3.53266
0.385 0.015 -0.0373454 0.00055137 -0.000190648 3.57497
0.39 0.015 -0.037843 0.000533612 -0.000193362 3.61551
0.395 0.015 -0.038322 0.000514523 -0.000195985 3.65417
0.4 0.015 -0.0387812 0.000494127 -0.000198509 3.69086
0.405 0.015 -0.0392195 0.000472453 -0.000200927 3.72548
0.41 0.015 -0.0396358 0.000449533 -0.000203234 3.75794
0.415 0.015 -0.0400288 0.000425402 -0.000205424 3.78816
0.42 0.015 -0.0403976 0.000400101 -0.000207489 3.81606
0.425 0.015 -0.0407411 0.000373672 -0.000209426 3.84156
0.43 0.015 -0.0410583 0.000346164 -0.000211227 3.86459
0.435 0.015 -0.0413483 0.000317626 -0.000212888 3.88508
0.44 0.015 -0.0416103 0.000288114 -0.000214405 3.90297
0.445 0.015 -0.0418434 0.000257685 -0.000215771 3.9182
0.45 0.015 -0.0420469 0.0002264 -0.000216983 3.93073
0.455 0.015 -0.04222 0.000194325 -0.000218036 3.9405
0.46 0.015 -0.0423621 0.000161527 -0.000218927 3.94748
0.465 0.015 -0.0424727 0.000128077 -0.000219653 3.95163
0.47 0.015 -0.0425512 9.40484e-05 -0.00022021 3.95293
0.475 0.015 -0.0425973 5.95165e-05 -0.000220595 3.95136
0.48 0.015 -0.0426105 2.45602e-05 -0.000220806 3.94689
0.485 0.015 -0.0425905 -1.07402e-05 -0.000220842 3.93953
0.49 0.015 -0.0425372 -4.63024e-05 -0.0002207 3.92927
0.495 0.015 -0.0424505 -8.20425e-05 -0.00022038 3.9161
0.5 0.015 -0.0423302 -0.000117875 -0.000219881 3.90006
0.505 0.015 -0.0421764 -0.000153714 -0.000219203 3.88114
0.51 0.015 -0.0419892 -0.000189473 -0.000218346 3.85937
0.515 0.015 -0.0417687 -0.000225063 -0.00021731 3.83478
0.52 0.015 -0.0415153 -0.000260397 -0.000216097 3.80741
0.525 0.015 -0.0412293 -0.000295388 -0.000214708 3.7773
0.53 0.015 -0.040911 -0.000329948 -0.000213145 3.74449
0.535 0.015 -0.040561 -0.000363992 -0.00021141 3.70903
0.54 0.015 -0.0401799 -0.000397434 -0.000209506 3.67099
0.545 0.015 -0.0397683 -0.000430192 -0.000207437 3.63044
0.55 0.015 -0.0393268 -0.000462183 -0.000205206 3.58743
0.555 0.015 -0.0388564 -0.000493329 -0.000202817 3.54204
0.56 0.015 -0.0383578 -0.000523551 -0.000200274 3.49436
0.565 0.015 -0.037832 -0.000552777 -0.000197583 3.44447
0.57 0.015 -0.03728 -0.000580935 -0.000194748 3.39245
0.575 0.015 -0.0367028 -0.000607958 -0.000191775 3.3384
0.58 0.015 -0.0361015 -0.000633782 -0.00018867 3.28241
0.585 0.015 -0.0354772 -0.000658347 -0.000185439 3.22459
0.59 0.015 -0.0348313 -0.000681599 -0.000182089 3.16504
0.595 0.015 -0.0341648 -0.000703485 -0.000178625 3.10386
0.6 0.015 -0.0334792 -0.000723961 -0.000175055 3.04117
0.605 0.015 -0.0327757 -0.000742984 -0.000171387 2.97708
0.61 0.015 -0.0320558 -0.000760518 -0.000167627 2.9117
0.615 0.015 -0.0313207 -0.000776533 -0.000163783 2.84514
0.62 0.015 -0.030572 -0.000791003 -0.000159863 2.77752
0.625 0.015 -0.029811 -0.000803909 -0.000155874 2.70897
0.63 0.015 -0.0290391 -0.000815234 -0.000151825 2.63959
0.635 0.015 -0.028258 -0.000824971 -0.000147723 2.56951
0.64 0.015 -0.0274689 -0.000833116 -0.000143577 2.49885
0.645 0.015 -0.0266734 -0.000839671 -0.000139394 2.42772
0.65 0.015 -0.025873 -0.000844644 -0.000135181 2.35625
0.655 0.015 -0.025069 -0.000848047 -0.000130948 2.28454
0.66 0.015 -0.0242628 -0.000849898 -0.000126702 2.21272
0.665 0.015 -0.023456 -0.000850222 -0.000122451 2.1409
0.67 0.015 -0.0226498 -0.000849046 -0.000118201 2.06918
0.675 0.015 -0.0218457 -0.000846402 -0.000113961 1.99769
0.68 0.015 -0.0210449 -0.000842329 -0.000109738 1.92652
0.685 0.015 -0.0202488 -0.000836868 -0.000105539 1.85579
0.69 0.015 -0.0194586 -0.000830065 -0.00010137 1.78558
0.695 0.015 -0.0186754 -0.000821968 -9.7239e-05 1.71601
0.7 0.015 -0.0179006 -0.000812631 -9.31514e-05 1.64715
0.705 0.015 -0.0171351 -0.000802109 -8.91135e-05 1.57911
0.71 0.015 -0.01638 -0.00079046 -8.51311e-05 1.51197
0.715 0.015 -0.0156363 -0.000777746 -8.12096e-05 1.44582
0.72 0.015 -0.014905 -0.000764029 -7.73543e-05 1.38072
0.725 0.015 -0.014187 -0.000749373 -7.357e-05 1.31676
0.73 0.015 -0.0134832 -0.000733844 -6.98612e-05 1.254
0.735 0.015 -0.0127942 -0.00071751 -6.62321e-05 1.19251
0.74 0.015 -0.0121208 -0.000700436 -6.26866e-05 1.13234
0.745 0.015 -0.0114636 -0.000682692 -5.92282e-05 1.07356
0.75 0.015 -0.0108233 -0.000664344 -5.58601e-05 1.01622
0.755 0.015 -0.0102004 -0.000645459 -5.25851e-05 0.96035
0.76 0.015 -0.00959531 -0.000626104 -4.94059e-05 0.906004
0.765 0.015 -0.0090085 -0.000606345 -4.63244e-05 0.853217
0.77 0.015 -0.00844031 -0.000586245 -4.33427e-05 0.802019
0.775 0.015 -0.00789103 -0.000565868 -4.04622e-05 0.752437
0.78 0.015 -0.00736091 -0.000545273 -3.76842e-05 0.704496
0.785 0.015 -0.00685012 -0.000524522 -3.50097e-05 0.658213
0.79 0.015 -0.0063588 -0.000503669 -3.24392e-05 0.613603
0.795 0.015 -0.00588704 -0.00048277 -2.99731e-05 0.570675
0.8 0.015 -0.00543486 -0.000461877 -2.76116e-05 0.529437
0.805 0.015 -0.00500225 -0.000441038 -2.53545e-05 0.48989
0.81 0.015 -0.00458915 -0.000420302 -2.32013e-05 0.452032
0.815 0.015 -0.00419546 -0.000399711 -2.11515e-05 0.41586
0.82 0.015 -0.00382105 -0.000379306 -1.92042e-05 0.381365
0.825 0.015 -0.00346573 -0.000359127 -1.73585e-05 0.348535
0.83 0.015 -0.00312929 -0.000339207 -1.5613e-05 0.317356