Title=" Lid Driven Flow"
VARIABLES="X","Y","U","V","psi","xi"
ZONE T= "BOX", I= 201, J=201, F=POINT
0 0 0 0 0.00347134 0
0.005 0 0 0 0 0
0.01 0 0 0 0 0
0.015 0 0 0 0 161.891
0.02 0 0 0 0 176.121
0.025 0 0 0 0 155.597
0.03 0 0 0 0 133.202
0.035 0 0 0 0 115.677
0.04 0 0 0 0 102.819
0.045 0 0 0 0 93.2843
0.05 0 0 0 0 85.9616
0.055 0 0 0 0 80.1185
0.06 0 0 0 0 75.2966
0.065 0 0 0 0 71.2067
0.07 0 0 0 0 67.6612
0.075 0 0 0 0 64.5334
0.08 0 0 0 0 61.7347
0.085 0 0 0 0 59.2016
0.09 0 0 0 0 56.8872
0.095 0 0 0 0 54.7561
0.1 0 0 0 0 52.7813
0.105 0 0 0 0 50.9418
0.11 0 0 0 0 49.2207
0.115 0 0 0 0 47.6047
0.12 0 0 0 0 46.0828
0.125 0 0 0 0 44.6459
0.13 0 0 0 0 43.2863
0.135 0 0 0 0 41.9976
0.14 0 0 0 0 40.7742
0.145 0 0 0 0 39.611
0.15 0 0 0 0 38.5038
0.155 0 0 0 0 37.4487
0.16 0 0 0 0 36.4421
0.165 0 0 0 0 35.4809
0.17 0 0 0 0 34.562
0.175 0 0 0 0 33.6828
0.18 0 0 0 0 32.8407
0.185 0 0 0 0 32.0335
0.19 0 0 0 0 31.2588
0.195 0 0 0 0 30.5147
0.2 0 0 0 0 29.7991
0.205 0 0 0 0 29.1103
0.21 0 0 0 0 28.4465
0.215 0 0 0 0 27.8061
0.22 0 0 0 0 27.1875
0.225 0 0 0 0 26.5893
0.23 0 0 0 0 26.0102
0.235 0 0 0 0 25.4487
0.24 0 0 0 0 24.9037
0.245 0 0 0 0 24.3741
0.25 0 0 0 0 23.8587
0.255 0 0 0 0 23.3565
0.26 0 0 0 0 22.8665
0.265 0 0 0 0 22.3879
0.27 0 0 0 0 21.9197
0.275 0 0 0 0 21.4612
0.28 0 0 0 0 21.0116
0.285 0 0 0 0 20.5703
0.29 0 0 0 0 20.1365
0.295 0 0 0 0 19.7096
0.3 0 0 0 0 19.2892
0.305 0 0 0 0 18.8746
0.31 0 0 0 0 18.4654
0.315 0 0 0 0 18.0612
0.32 0 0 0 0 17.6615
0.325 0 0 0 0 17.2659
0.33 0 0 0 0 16.8743
0.335 0 0 0 0 16.4861
0.34 0 0 0 0 16.1013
0.345 0 0 0 0 15.7195
0.35 0 0 0 0 15.3406
0.355 0 0 0 0 14.9643
0.36 0 0 0 0 14.5906
0.365 0 0 0 0 14.2193
0.37 0 0 0 0 13.8504
0.375 0 0 0 0 13.4837
0.38 0 0 0 0 13.1193
0.385 0 0 0 0 12.757
0.39 0 0 0 0 12.397
0.395 0 0 0 0 12.0393
0.4 0 0 0 0 11.6838
0.405 0 0 0 0 11.3307
0.41 0 0 0 0 10.9801
0.415 0 0 0 0 10.6321
0.42 0 0 0 0 10.2867
0.425 0 0 0 0 9.94416
0.43 0 0 0 0 9.60459
0.435 0 0 0 0 9.26814
0.44 0 0 0 0 8.93499
0.445 0 0 0 0 8.60533
0.45 0 0 0 0 8.27934
0.455 0 0 0 0 7.95722
0.46 0 0 0 0 7.63916
0.465 0 0 0 0 7.32538
0.47 0 0 0 0 7.01609
0.475 0 0 0 0 6.71148
0.48 0 0 0 0 6.41177
0.485 0 0 0 0 6.11717
0.49 0 0 0 0 5.82788
0.495 0 0 0 0 5.54409
0.5 0 0 0 0 5.266
0.505 0 0 0 0 4.99379
0.51 0 0 0 0 4.72765
0.515 0 0 0 0 4.46772
0.52 0 0 0 0 4.21418
0.525 0 0 0 0 3.96716
0.53 0 0 0 0 3.72679
0.535 0 0 0 0 3.49319
0.54 0 0 0 0 3.26646
0.545 0 0 0 0 3.04668
0.55 0 0 0 0 2.83393
0.555 0 0 0 0 2.62827
0.56 0 0 0 0 2.42972
0.565 0 0 0 0 2.23832
0.57 0 0 0 0 2.05407
0.575 0 0 0 0 1.87696
0.58 0 0 0 0 1.70696
0.585 0 0 0 0 1.54403
0.59 0 0 0 0 1.38812
0.595 0 0 0 0 1.23915
0.6 0 0 0 0 1.09703
0.605 0 0 0 0 0.96168
0.61 0 0 0 0 0.832974
0.615 0 0 0 0 0.710793
0.62 0 0 0 0 0.595003
0.625 0 0 0 0 0.48546
0.63 0 0 0 0 0.382012
0.635 0 0 0 0 0.284499
0.64 0 0 0 0 0.192754
0.645 0 0 0 0 0.106602
0.65 0 0 0 0 0.0258674
0.655 0 0 0 0 -0.0496341
0.66 0 0 0 0 -0.120088
0.665 0 0 0 0 -0.185681
0.67 0 0 0 0 -0.246606
0.675 0 0 0 0 -0.303053
0.68 0 0 0 0 -0.355213
0.685 0 0 0 0 -0.403281
0.69 0 0 0 0 -0.447448
0.695 0 0 0 0 -0.487906
0.7 0 0 0 0 -0.524847
0.705 0 0 0 0 -0.558461
0.71 0 0 0 0 -0.588938
0.715 0 0 0 0 -0.616466
0.72 0 0 0 0 -0.64123
0.725 0 0 0 0 -0.663416
0.73 0 0 0 0 -0.683204
0.735 0 0 0 0 -0.700772
0.74 0 0 0 0 -0.716293
0.745 0 0 0 0 -0.729936
0.75 0 0 0 0 -0.741862
0.755 0 0 0 0 -0.752224
0.76 0 0 0 0 -0.761168
0.765 0 0 0 0 -0.768828
0.77 0 0 0 0 -0.775324
0.775 0 0 0 0 -0.780767
0.78 0 0 0 0 -0.78525
0.785 0 0 0 0 -0.788849
0.79 0 0 0 0 -0.791626
0.795 0 0 0 0 -0.793623
0.8 0 0 0 0 -0.794864
0.805 0 0 0 0 -0.795353
0.81 0 0 0 0 -0.795078
0.815 0 0 0 0 -0.794008
0.82 0 0 0 0 -0.792093
0.825 0 0 0 0 -0.78927
0.83 0 0 0 0 -0.785459
0.835 0 0 0 0 -0.780571
0.84 0 0 0 0 -0.774504
0.845 0 0 0 0 -0.767149
0.85 0 0 0 0 -0.758396
0.855 0 0 0 0 -0.74813
0.86 0 0 0 0 -0.73624
0.865 0 0 0 0 -0.722622
0.87 0 0 0 0 -0.707177
0.875 0 0 0 0 -0.689825
0.88 0 0 0 0 -0.670497
0.885 0 0 0 0 -0.649149
0.89 0 0 0 0 -0.625757
0.895 0 0 0 0 -0.600328
0.9 0 0 0 0 -0.572894
0.905 0 0 0 0 -0.543525
0.91 0 0 0 0 -0.512323
0.915 0 0 0 0 -0.479429
0.92 0 0 0 0 -0.445024
0.925 0 0 0 0 -0.409328
0.93 0 0 0 0 -0.372604
0.935 0 0 0 0 -0.335157
0.94 0 0 0 0 -0.297334
0.945 0 0 0 0 -0.259525
0.95 0 0 0 0 -0.222164
0.955 0 0 0 0 -0.185725
0.96 0 0 0 0 -0.150724
0.965 0 0 0 0 -0.117718
0.97 0 0 0 0 -0.0873053
0.975 0 0 0 0 -0.0601166
0.98 0 0 0 0 -0.0368113
0.985 0 0 0 0 -0.0180544
0.99 0 0 0 0 -0.00446756
0.995 0 0 0 0 0.00348779
1 0 0 0 0 0.00578632
0 0.005 0 0 0 0
0.005 0.005 0 0 0 0
0.01 0.005 0 0 0 73.7283
0.015 0.005 0 0 0 62.0756
0.02 0.005 0 0 0 45.7376
0.025 0.005 0 0 0 33.9769
0.03 0.005 0 0 0 26.0783
0.035 0.005 0 0 0 20.6411
0.04 0.005 0 0 0 16.7254
0.045 0.005 0 0 0 13.7821
0.05 0.005 0 0 0 11.4935
0.055 0.005 0 0 0 9.66952
0.06 0.005 0 0 0 8.19068
0.065 0.005 0 0 0 6.9776
0.07 0.005 0 0 0 5.97473
0.075 0.005 0 0 0 5.14145
0.08 0.005 0 0 0 4.44691
0.085 0.005 0 0 0 3.86699
0.09 0.005 0 0 0 3.38246
0.095 0.005 0 0 0 2.97771
0.1 0.005 0 0 0 2.63994
0.105 0.005 0 0 0 2.35857
0.11 0.005 0 0 0 2.12483
0.115 0.005 0 0 0 1.9314
0.12 0.005 0 0 0 1.77215
0.125 0.005 0 0 0 1.64198
0.13 0.005 0 0 0 1.5366
0.135 0.005 0 0 0 1.45244
0.14 0.005 0 0 0 1.38648
0.145 0.005 0 0 0 1.33623
0.15 0.005 0 0 0 1.29959
0.155 0.005 0 0 0 1.27479
0.16 0.005 0 0 0 1.26037
0.165 0.005 0 0 0 1.25511
0.17 0.005 0 0 0 1.25798
0.175 0.005 0 0 0 1.26813
0.18 0.005 0 0 0 1.28485
0.185 0.005 0 0 0 1.30754
0.19 0.005 0 0 0 1.3357
0.195 0.005 0 0 0 1.36893
0.2 0.005 0 0 0 1.40687
0.205 0.005 0 0 0 1.44922
0.21 0.005 0 0 0 1.49574
0.215 0.005 0 0 0 1.54622
0.22 0.005 0 0 0 1.60047
0.225 0.005 0 0 0 1.65832
0.23 0.005 0 0 0 1.71965
0.235 0.005 0 0 0 1.78431
0.24 0.005 0 0 0 1.8522
0.245 0.005 0 0 0 1.9232
0.25 0.005 0 0 0 1.99721
0.255 0.005 0 0 0 2.07413
0.26 0.005 0 0 0 2.15387
0.265 0.005 0 0 0 2.23632
0.27 0.005 0 0 0 2.32139
0.275 0.005 0 0 0 2.40898
0.28 0.005 0 0 0 2.49897
0.285 0.005 0 0 0 2.59128
0.29 0.005 0 0 0 2.68578
0.295 0.005 0 0 0 2.78236
0.3 0.005 0 0 0 2.8809
0.305 0.005 0 0 0 2.98127
0.31 0.005 0 0 0 3.08335
0.315 0.005 0 0 0 3.187
0.32 0.005 0 0 0 3.29207
0.325 0.005 0 0 0 3.39842
0.33 0.005 0 0 0 3.5059
0.335 0.005 0 0 0 3.61434
0.34 0.005 0 0 0 3.72359
0.345 0.005 0 0 0 3.83346
0.35 0.005 0 0 0 3.94379
0.355 0.005 0 0 0 4.0544
0.36 0.005 0 0 0 4.16509
0.365 0.005 0 0 0 4.27568
0.37 0.005 0 0 0 4.38597
0.375 0.005 0 0 0 4.49577
0.38 0.005 0 0 0 4.60486
0.385 0.005 0 0 0 4.71305
0.39 0.005 0 0 0 4.82013
0.395 0.005 0 0 0 4.92588
0.4 0.005 0 0 0 5.03009
0.405 0.005 0 0 0 5.13254
0.41 0.005 0 0 0 5.23302
0.415 0.005 0 0 0 5.33131
0.42 0.005 0 0 0 5.42719
0.425 0.005 0 0 0 5.52045
0.43 0.005 0 0 0 5.61086
0.435 0.005 0 0 0 5.69822
0.44 0.005 0 0 0 5.78231
0.445 0.005 0 0 0 5.86292
0.45 0.005 0 0 0 5.93984
0.455 0.005 0 0 0 6.01287
0.46 0.005 0 0 0 6.08181
0.465 0.005 0 0 0 6.14646
0.47 0.005 0 0 0 6.20664
0.475 0.005 0 0 0 6.26217
0.48 0.005 0 0 0 6.31286
0.485 0.005 0 0 0 6.35855
0.49 0.005 0 0 0 6.39907
0.495 0.005 0 0 0 6.43429
0.5 0.005 0 0 0 6.46404
0.505 0.005 0 0 0 6.48821
0.51 0.005 0 0 0 6.50667
0.515 0.005 0 0 0 6.5193
0.52 0.005 0 0 0 6.526
0.525 0.005 0 0 0 6.5267
0.53 0.005 0 0 0 6.5213
0.535 0.005 0 0 0 6.50976
0.54 0.005 0 0 0 6.49202
0.545 0.005 0 0 0 6.46806
0.55 0.005 0 0 0 6.43784
0.555 0.005 0 0 0 6.40137
0.56 0.005 0 0 0 6.35865
0.565 0.005 0 0 0 6.30973
0.57 0.005 0 0 0 6.25463
0.575 0.005 0 0 0 6.19342
0.58 0.005 0 0 0 6.12618
0.585 0.005 0 0 0 6.053
0.59 0.005 0 0 0 5.97399
0.595 0.005 0 0 0 5.88927
0.6 0.005 0 0 0 5.799
0.605 0.005 0 0 0 5.70332
0.61 0.005 0 0 0 5.60242
0.615 0.005 0 0 0 5.49649
0.62 0.005 0 0 0 5.38574
0.625 0.005 0 0 0 5.27039
0.63 0.005 0 0 0 5.15068
0.635 0.005 0 0 0 5.02686
0.64 0.005 0 0 0 4.8992
0.645 0.005 0 0 0 4.76797
0.65 0.005 0 0 0 4.63347
0.655 0.005 0 0 0 4.49599
0.66 0.005 0 0 0 4.35586
0.665 0.005 0 0 0 4.21338
0.67 0.005 0 0 0 4.06888
0.675 0.005 0 0 0 3.9227
0.68 0.005 0 0 0 3.77517
0.685 0.005 0 0 0 3.62663
0.69 0.005 0 0 0 3.47744
0.695 0.005 0 0 0 3.32793
0.7 0.005 0 0 0 3.17844
0.705 0.005 0 0 0 3.02932
0.71 0.005 0 0 0 2.88091
0.715 0.005 0 0 0 2.73354
0.72 0.005 0 0 0 2.58753
0.725 0.005 0 0 0 2.4432
0.73 0.005 0 0 0 2.30087
0.735 0.005 0 0 0 2.16082
0.74 0.005 0 0 0 2.02335
0.745 0.005 0 0 0 1.88873
0.75 0.005 0 0 0 1.75722
0.755 0.005 0 0 0 1.62906
0.76 0.005 0 0 0 1.50448
0.765 0.005 0 0 0 1.38368
0.77 0.005 0 0 0 1.26687
0.775 0.005 0 0 0 1.1542
0.78 0.005 0 0 0 1.04584
0.785 0.005 0 0 0 0.941926
0.79 0.005 0 0 0 0.842563
0.795 0.005 0 0 0 0.747849
0.8 0.005 0 0 0 0.65786
0.805 0.005 0 0 0 0.572652
0.81 0.005 0 0 0 0.49226
0.815 0.005 0 0 0 0.416702
0.82 0.005 0 0 0 0.345976
0.825 0.005 0 0 0 0.280063
0.83 0.005 0 0 0 0.218927
0.835 0.005 0 0 0 0.162515
0.84 0.005 0 0 0 0.11076
0.845 0.005 0 0 0 0.0635784
0.85 0.005 0 0 0 0.0208755
0.855 0.005 0 0 0 -0.0174569
0.86 0.005 0 0 0 -0.0515377
0.865 0.005 0 0 0 -0.0814961
0.87 0.005 0 0 0 -0.10747
0.875 0.005 0 0 0 -0.129605
0.88 0.005 0 0 0 -0.148055
0.885 0.005 0 0 0 -0.162977
0.89 0.005 0 0 0 -0.174535
0.895 0.005 0 0 0 -0.182898
0.9 0.005 0 0 0 -0.188236
0.905 0.005 0 0 0 -0.190724
0.91 0.005 0 0 0 -0.190542
0.915 0.005 0 0 0 -0.187869
0.92 0.005 0 0 0 -0.182893
0.925 0.005 0 0 0 -0.175802
0.93 0.005 0 0 0 -0.166794
0.935 0.005 0 0 0 -0.156073
0.94 0.005 0 0 0 -0.143856
0.945 0.005 0 0 0 -0.130373
0.95 0.005 0 0 0 -0.115873
0.955 0.005 0 0 0 -0.100632
0.96 0.005 0 0 0 -0.0849576
0.965 0.005 0 0 0 -0.0691986
0.97 0.005 0 0 0 -0.0537575
0.975 0.005 0 0 0 -0.0391024
0.98 0.005 0 0 0 -0.025781
0.985 0.005 0 0 0 -0.0144281
0.99 0.005 0 0 0 -0.0057513
0.995 0.005 0 0 0 -0.000440419
1 0.005 0 0 0 0.00115324
0 0.01 0 0 0.00115324 0
0.005 0.01 0 0 0 -326.272
0.01 0.01 -0.180049 0.0775945 -0.000921604 -44.399
0.015 0.01 -0.184882 -0.0349884 -0.000775945 9.53437
0.02 0.01 -0.156421 -0.0351233 -0.00057172 19.1197
0.025 0.01 -0.127594 -0.0245741 -0.000424712 18.9916
0.03 0.01 -0.104176 -0.0166698 -0.000325979 16.8229
0.035 0.01 -0.085919 -0.0116911 -0.000258013 14.4873
0.04 0.01 -0.0716316 -0.00857367 -0.000209068 12.4134
0.045 0.01 -0.0602755 -0.0065399 -0.000172277 10.6554
0.05 0.01 -0.0511004 -0.00514076 -0.000143669 9.17897
0.055 0.01 -0.0435853 -0.00412853 -0.000120869 7.93716
0.06 0.01 -0.0373661 -0.00336491 -0.000102384 6.88863
0.065 0.01 -0.0321815 -0.00276994 -8.72199e-05 6.0001
0.07 0.01 -0.0278379 -0.00229518 -7.46841e-05 5.24524
0.075 0.01 -0.0241877 -0.00190978 -6.42681e-05 4.60301
0.08 0.01 -0.0211148 -0.00159307 -5.55863e-05 4.05634
0.085 0.01 -0.0185262 -0.00133056 -4.83374e-05 3.59119
0.09 0.01 -0.016346 -0.0011116 -4.22808e-05 3.19582
0.095 0.01 -0.0145114 -0.000928153 -3.72214e-05 2.86035
0.1 0.01 -0.0129703 -0.000773918 -3.29992e-05 2.57639
0.105 0.01 -0.0116788 -0.00064388 -2.94822e-05 2.33678
0.11 0.01 -0.0106002 -0.00053397 -2.65604e-05 2.1354
0.115 0.01 -0.00970332 -0.000440855 -2.41425e-05 1.96703
0.12 0.01 -0.00896197 -0.000361774 -2.21519e-05 1.82718
0.125 0.01 -0.00835398 -0.000294436 -2.05247e-05 1.71201
0.13 0.01 -0.00786063 -0.000236926 -1.92075e-05 1.61826
0.135 0.01 -0.00746609 -0.000187645 -1.81554e-05 1.54311
0.14 0.01 -0.007157 -0.00014525 -1.7331e-05 1.48417
0.145 0.01 -0.00692209 -0.000108618 -1.67029e-05 1.4394
0.15 0.01 -0.00675183 -7.68045e-05 -1.62448e-05 1.40707
0.155 0.01 -0.00663822 -4.90195e-05 -1.59349e-05 1.38569
0.16 0.01 -0.0065745 -2.45996e-05 -1.57546e-05 1.374
0.165 0.01 -0.00655498 -2.98921e-06 -1.56889e-05 1.37095
0.17 0.01 -0.0065749 1.62762e-05 -1.57247e-05 1.37562
0.175 0.01 -0.00663022 3.35848e-05 -1.58516e-05 1.38724
0.18 0.01 -0.00671756 4.92601e-05 -1.60606e-05 1.40516
0.185 0.01 -0.00683408 6.35714e-05 -1.63442e-05 1.42883
0.19 0.01 -0.00697736 7.67419e-05 -1.66963e-05 1.45777
0.195 0.01 -0.00714538 8.8956e-05 -1.71116e-05 1.49158
0.2 0.01 -0.00733643 0.000100366 -1.75858e-05 1.52991
0.205 0.01 -0.00754902 0.000111096 -1.81153e-05 1.57247
0.21 0.01 -0.00778192 0.000121247 -1.86968e-05 1.619
0.215 0.01 -0.00803403 0.000130903 -1.93277e-05 1.66928
0.22 0.01 -0.00830441 0.000140128 -2.00058e-05 1.7231
0.225 0.01 -0.00859223 0.000148975 -2.0729e-05 1.7803
0.23 0.01 -0.00889674 0.000157485 -2.14956e-05 1.84072
0.235 0.01 -0.00921726 0.000165689 -2.23039e-05 1.90421
0.24 0.01 -0.00955318 0.000173611 -2.31525e-05 1.97063
0.245 0.01 -0.0099039 0.000181268 -2.404e-05 2.03987
0.25 0.01 -0.0102689 0.000188671 -2.49651e-05 2.1118
0.255 0.01 -0.0106476 0.000195826 -2.59267e-05 2.1863
0.26 0.01 -0.0110394 0.000202737 -2.69234e-05 2.26326
0.265 0.01 -0.011444 0.000209401 -2.7954e-05 2.34257
0.27 0.01 -0.0118606 0.000215817 -2.90174e-05 2.42411
0.275 0.01 -0.0122888 0.000221978 -3.01122e-05 2.50776
0.28 0.01 -0.0127281 0.000227876 -3.12372e-05 2.59342
0.285 0.01 -0.0131779 0.000233503 -3.2391e-05 2.68096
0.29 0.01 -0.0136375 0.000238848 -3.35722e-05 2.77026
0.295 0.01 -0.0141064 0.000243898 -3.47795e-05 2.86119
0.3 0.01 -0.014584 0.000248642 -3.60112e-05 2.95363
0.305 0.01 -0.0150696 0.000253066 -3.72659e-05 3.04744
0.31 0.01 -0.0155626 0.000257157 -3.85419e-05 3.14248
0.315 0.01 -0.0160622 0.0002609 -3.98375e-05 3.23862
0.32 0.01 -0.0165678 0.000264282 -4.11509e-05 3.3357
0.325 0.01 -0.0170786 0.000267286 -4.24803e-05 3.43358
0.33 0.01 -0.0175938 0.0002699 -4.38237e-05 3.5321
0.335 0.01 -0.0181126 0.000272109 -4.51793e-05 3.63111
0.34 0.01 -0.0186343 0.000273899 -4.65448e-05 3.73044
0.345 0.01 -0.0191579 0.000275256 -4.79183e-05 3.82993
0.35 0.01 -0.0196827 0.000276168 -4.92974e-05 3.92941
0.355 0.01 -0.0202077 0.00027662 -5.068e-05 4.02871
0.36 0.01 -0.020732 0.000276602 -5.20636e-05 4.12765
0.365 0.01 -0.0212547 0.000276102 -5.3446e-05 4.22605
0.37 0.01 -0.0217749 0.000275109 -5.48247e-05 4.32373
0.375 0.01 -0.0222916 0.000273614 -5.61971e-05 4.42052
0.38 0.01 -0.0228038 0.000271608 -5.75608e-05 4.51622
0.385 0.01 -0.0233107 0.000269082 -5.89132e-05 4.61065
0.39 0.01 -0.0238111 0.00026603 -6.02516e-05 4.70363
0.395 0.01 -0.024304 0.000262446 -6.15735e-05 4.79497
0.4 0.01 -0.0247886 0.000258325 -6.28761e-05 4.88447
0.405 0.01 -0.0252637 0.000253664 -6.41568e-05 4.97196
0.41 0.01 -0.0257284 0.00024846 -6.54128e-05 5.05725
0.415 0.01 -0.0261817 0.000242712 -6.66414e-05 5.14015
0.42 0.01 -0.0266225 0.000236421 -6.78399e-05 5.22048
0.425 0.01 -0.0270498 0.000229587 -6.90056e-05 5.29806
0.43 0.01 -0.0274627 0.000222214 -7.01358e-05 5.3727
0.435 0.01 -0.0278602 0.000214306 -7.12278e-05 5.44424
0.44 0.01 -0.0282414 0.000205869 -7.22789e-05 5.5125
0.445 0.01 -0.0286052 0.000196909 -7.32865e-05 5.57731
0.45 0.01 -0.0289507 0.000187436 -7.4248e-05 5.6385
0.455 0.01 -0.0292771 0.000177459 -7.51609e-05 5.69593
0.46 0.01 -0.0295834 0.000166989 -7.60226e-05 5.74942
0.465 0.01 -0.0298688 0.000156041 -7.68308e-05 5.79884
0.47 0.01 -0.0301325 0.000144627 -7.75831e-05 5.84404
0.475 0.01 -0.0303737 0.000132766 -7.82771e-05 5.88488
0.48 0.01 -0.0305915 0.000120473 -7.89107e-05 5.92123
0.485 0.01 -0.0307853 0.000107769 -7.94819e-05 5.95298
0.49 0.01 -0.0309543 9.46733e-05 -7.99885e-05 5.98
0.495 0.01 -0.031098 8.12094e-05 -8.04286e-05 6.0022
0.5 0.01 -0.0312158 6.74006e-05 -8.08006e-05 6.01947
0.505 0.01 -0.031307 5.32724e-05 -8.11027e-05 6.03172
0.51 0.01 -0.0313712 3.88515e-05 -8.13334e-05 6.03888
0.515 0.01 -0.0314079 2.41662e-05 -8.14912e-05 6.04088
0.52 0.01 -0.0314167 9.24623e-06 -8.15751e-05 6.03766
0.525 0.01 -0.0313973 -5.87716e-06 -8.15837e-05 6.02917
0.53 0.01 -0.0313494 -2.11715e-05 -8.15163e-05 6.01537
0.535 0.01 -0.0312728 -3.66031e-05 -8.13721e-05 5.99624
0.54 0.01 -0.0311673 -5.21367e-05 -8.11503e-05 5.97177
0.545 0.01 -0.0310328 -6.77363e-05 -8.08507e-05 5.94194
0.55 0.01 -0.0308693 -8.33645e-05 -8.0473e-05 5.90677
0.555 0.01 -0.0306769 -9.8983e-05 -8.00171e-05 5.86628
0.56 0.01 -0.0304557 -0.000114553 -7.94832e-05 5.8205
0.565 0.01 -0.0302058 -0.000130033 -7.88716e-05 5.76948
0.57 0.01 -0.0299274 -0.000145384 -7.81829e-05 5.71329
0.575 0.01 -0.0296211 -0.000160565 -7.74178e-05 5.65198
0.58 0.01 -0.029287 -0.000175533 -7.65773e-05 5.58565
0.585 0.01 -0.0289258 -0.000190247 -7.56626e-05 5.51438
0.59 0.01 -0.0285379 -0.000204664 -7.46749e-05 5.43831
0.595 0.01 -0.028124 -0.000218744 -7.3616e-05 5.35753
0.6 0.01 -0.0276847 -0.000232444 -7.24875e-05 5.2722
0.605 0.01 -0.027221 -0.000245723 -7.12916e-05 5.18245
0.61 0.01 -0.0267335 -0.00025854 -7.00303e-05 5.08845
0.615 0.01 -0.0262232 -0.000270857 -6.87062e-05 4.99037
0.62 0.01 -0.0256911 -0.000282633 -6.73218e-05 4.88839
0.625 0.01 -0.0251382 -0.000293833 -6.58799e-05 4.78271
0.63 0.01 -0.0245657 -0.000304419 -6.43835e-05 4.67353
0.635 0.01 -0.0239746 -0.000314357 -6.28358e-05 4.56106
0.64 0.01 -0.0233663 -0.000323615 -6.124e-05 4.44554
0.645 0.01 -0.022742 -0.000332163 -5.95997e-05 4.32719
0.65 0.01 -0.022103 -0.000339973 -5.79184e-05 4.20625
0.655 0.01 -0.0214508 -0.000347018 -5.62e-05 4.08298
0.66 0.01 -0.0207867 -0.000353276 -5.44483e-05 3.95763
0.665 0.01 -0.0201121 -0.000358727 -5.26672e-05 3.83047
0.67 0.01 -0.0194287 -0.000363354 -5.0861e-05 3.70176
0.675 0.01 -0.0187379 -0.000367142 -4.90337e-05 3.57177
0.68 0.01 -0.0180411 -0.000370081 -4.71896e-05 3.44078
0.685 0.01 -0.0173401 -0.000372164 -4.5333e-05 3.30906
0.69 0.01 -0.0166362 -0.000373388 -4.3468e-05 3.1769
0.695 0.01 -0.0159312 -0.000373751 -4.15991e-05 3.04457
0.7 0.01 -0.0152265 -0.000373258 -3.97305e-05 2.91235
0.705 0.01 -0.0145237 -0.000371916 -3.78665e-05 2.78052
0.71 0.01 -0.0138244 -0.000369736 -3.60114e-05 2.64935
0.715 0.01 -0.0131299 -0.000366732 -3.41692e-05 2.51911
0.72 0.01 -0.0124419 -0.000362922 -3.23441e-05 2.39007
0.725 0.01 -0.0117617 -0.000358328 -3.054e-05 2.26248
0.73 0.01 -0.0110908 -0.000352976 -2.87608e-05 2.13659
0.735 0.01 -0.0104305 -0.000346893 -2.70103e-05 2.01265
0.74 0.01 -0.00978207 -0.000340111 -2.52919e-05 1.8909
0.745 0.01 -0.00914682 -0.000332664 -2.36092e-05 1.77155
0.75 0.01 -0.00852592 -0.000324591 -2.19653e-05 1.65482
0.755 0.01 -0.00792046 -0.00031593 -2.03633e-05 1.54091
0.76 0.01 -0.00733151 -0.000306723 -1.8806e-05 1.43002
0.765 0.01 -0.00676001 -0.000297015 -1.72961e-05 1.32231
0.77 0.01 -0.00620686 -0.000286852 -1.58359e-05 1.21795
0.775 0.01 -0.00567286 -0.00027628 -1.44275e-05 1.11709
0.78 0.01 -0.00515873 -0.000265347 -1.30731e-05 1.01987
0.785 0.01 -0.0046651 -0.000254103 -1.17741e-05 0.926391
0.79 0.01 -0.00419252 -0.000242597 -1.0532e-05 0.836771
0.795 0.01 -0.00374145 -0.000230878 -9.34812e-06 0.751093
0.8 0.01 -0.00331225 -0.000218996 -8.22326e-06 0.66943
0.805 0.01 -0.0029052 -0.000207 -7.15815e-06 0.591838
0.81 0.01 -0.00252051 -0.000194937 -6.15325e-06 0.518359
0.815 0.01 -0.00215826 -0.000182855 -5.20878e-06 0.449018
0.82 0.01 -0.00181849 -0.000170798 -4.3247e-06 0.383827
0.825 0.01 -0.00150114 -0.000158811 -3.50079e-06 0.322781
0.83 0.01 -0.00120607 -0.000146935 -2.73659e-06 0.265862
0.835 0.01 -0.000933065 -0.000135209 -2.03144e-06 0.213039
0.84 0.01 -0.00068185 -0.000123671 -1.38449e-06 0.164268
0.845 0.01 -0.000452071 -0.000112355 -7.94725e-07 0.11949
0.85 0.01 -0.000243316 -0.000101294 -2.60938e-07 0.0786364
0.855 0.01 -5.51126e-05 -9.0516e-05 2.18217e-07 0.0416281
0.86 0.01 0.000113063 -8.00484e-05 6.44227e-07 0.00837427
0.865 0.01 0.000261783 -6.99148e-05 1.01871e-06 -0.0212247
0.87 0.01 0.000391667 -6.0136e-05 1.34338e-06 -0.0472772
0.875 0.01 0.000503371 -5.07304e-05 1.62007e-06 -0.0698997
0.88 0.01 0.000597586 -4.17139e-05 1.85069e-06 -0.0892157
0.885 0.01 0.000675036 -3.31e-05 2.03722e-06 -0.105355
0.89 0.01 0.00073647 -2.49004e-05 2.1817e-06 -0.118455
0.895 0.01 0.000782664 -1.7125e-05 2.28623e-06 -0.128655
0.9 0.01 0.000814412 -9.7828e-06 2.35295e-06 -0.136104
0.905 0.01 0.000832531 -2.88189e-06 2.38406e-06 -0.140952
0.91 0.01 0.000837858 3.56939e-06 2.38178e-06 -0.143356
0.915 0.01 0.00083125 9.56191e-06 2.34837e-06 -0.143478
0.92 0.01 0.000813588 1.50847e-05 2.28616e-06 -0.141485
0.925 0.01 0.000785779 2.01239e-05 2.19753e-06 -0.137551
0.93 0.01 0.000748765 2.46613e-05 2.08493e-06 -0.131856
0.935 0.01 0.000703531 2.86726e-05 1.95092e-06 -0.124591
0.94 0.01 0.000651114 3.2126e-05 1.7982e-06 -0.115957
0.945 0.01 0.000592623 3.49788e-05 1.62966e-06 -0.106168
0.95 0.01 0.000529252 3.71757e-05 1.44842e-06 -0.0954569
0.955 0.01 0.000462307 3.86445e-05 1.2579e-06 -0.0840737
0.96 0.01 0.000393233 3.92922e-05 1.06197e-06 -0.0722933
0.965 0.01 0.000323644 3.90004e-05 8.64984e-07 -0.0604178
0.97 0.01 0.000255358 3.76204e-05 6.71969e-07 -0.0487787
0.975 0.01 0.000190431 3.49707e-05 4.88781e-07 -0.0377369
0.98 0.01 0.000131177 3.08429e-05 3.22263e-07 -0.0276741
0.985 0.01 8.01434e-05 2.50371e-05 1.80351e-07 -0.0189673
0.99 0.01 3.9985e-05 1.74846e-05 7.18913e-08 -0.0119257
0.995 0.01 1.30794e-05 8.63068e-06 5.5052e-09 -0.00664996
1 0.01 5.51111e-07 5.5052e-07 -1.44155e-08 -0.00274714
0 0.015 0 0 -0.000440889 0
0.005 0.015 0 0 0 -255.96
0.01 0.015 -0.152867 0.184882 -0.00180049 -79.2513
0.015 0.015 -0.206273 -0.0236281 -0.00184882 -16.6375
0.02 0.015 -0.204635 -0.0572879 -0.00156421 2.30746
0.025 0.015 -0.184619 -0.0522451 -0.00127594 7.91377
0.03 0.015 -0.161083 -0.0416746 -0.00104176 9.23447
0.035 0.015 -0.139015 -0.0325446 -0.00085919 9.09954
0.04 0.015 -0.119708 -0.0256435 -0.000716316 8.47585
0.045 0.015 -0.103206 -0.0205313 -0.000602755 7.71632
0.05 0.015 -0.0891924 -0.0166902 -0.000511004 6.95422
0.055 0.015 -0.0772995 -0.0137343 -0.000435853 6.23944
0.06 0.015 -0.0671928 -0.0114038 -0.000373661 5.58876
0.065 0.015 -0.0585917 -0.00952815 -0.000321815 5.00555
0.07 0.015 -0.0512648 -0.00799374 -0.000278379 4.48762
0.075 0.015 -0.0450211 -0.0067231 -0.000241877 4.03063
0.08 0.015 -0.0397018 -0.00566149 -0.000211148 3.62947
0.085 0.015 -0.0351739 -0.00476884 -0.000185262 3.27892
0.09 0.015 -0.031325 -0.00401479 -0.00016346 2.97395
0.095 0.015 -0.0280597 -0.00337568 -0.000145114 2.70983
0.1 0.015 -0.0252965 -0.00283258 -0.000129703 2.48217
0.105 0.015 -0.0229659 -0.0023701 -0.000116788 2.28699
0.11 0.015 -0.0210082 -0.00197552 -0.000106002 2.12066
0.115 0.015 -0.0193724 -0.00163823 -9.70331e-05 1.97993
0.12 0.015 -0.0180149 -0.00134934 -8.96196e-05 1.86188
0.125 0.015 -0.0168982 -0.00110133 -8.35397e-05 1.76392
0.13 0.015 -0.0159903 -0.000887885 -7.86062e-05 1.68376
0.135 0.015 -0.0152641 -0.000703622 -7.46609e-05 1.61938
0.14 0.015 -0.0146961 -0.000544001 -7.157e-05 1.56899
0.145 0.015 -0.0142665 -0.000405169 -6.92208e-05 1.53104
0.15 0.015 -0.0139585 -0.000283865 -6.75183e-05 1.50417
0.155 0.015 -0.0137575 -0.00017733 -6.63821e-05 1.48719
0.16 0.015 -0.0136515 -8.3229e-05 -6.57449e-05 1.47908
0.165 0.015 -0.0136301 4.07183e-07 -6.55498e-05 1.47894
0.17 0.015 -0.0136844 7.52397e-05 -6.5749e-05 1.486
0.175 0.015 -0.013807 0.000142666 -6.63022e-05 1.49958
0.18 0.015 -0.0139916 0.000203859 -6.71756e-05 1.51911
0.185 0.015 -0.0142327 0.0002598 -6.83407e-05 1.54408
0.19 0.015 -0.0145258 0.000311309 -6.97736e-05 1.57405
0.195 0.015 -0.014867 0.000359068 -7.14538e-05 1.60864
0.2 0.015 -0.0152529 0.000403642 -7.33642e-05 1.64751
0.205 0.015 -0.0156807 0.000445495 -7.54902e-05 1.69039
0.21 0.015 -0.0161478 0.000485009 -7.78192e-05 1.737
0.215 0.015 -0.016652 0.000522494 -8.03403e-05 1.78712
0.22 0.015 -0.0171916 0.000558201 -8.30441e-05 1.84054
0.225 0.015 -0.0177646 0.000592329 -8.59223e-05 1.89707
0.23 0.015 -0.0183697 0.000625036 -8.89674e-05 1.95655
0.235 0.015 -0.0190054 0.000656443 -9.21726e-05 2.01881
0.24 0.015 -0.0196703 0.000686643 -9.55318e-05 2.08371
0.245 0.015 -0.0203633 0.000715701 -9.9039e-05 2.15111
0.25 0.015 -0.0210832 0.000743662 -0.000102689 2.22086
0.255 0.015 -0.0218287 0.000770554 -0.000106476 2.29285
0.26 0.015 -0.0225989 0.00079639 -0.000110394 2.36693
0.265 0.015 -0.0233924 0.000821169 -0.00011444 2.44298
0.27 0.015 -0.0242083 0.00084488 -0.000118606 2.52088
0.275 0.015 -0.0250454 0.000867505 -0.000122888 2.60049
0.28 0.015 -0.0259025 0.000889017 -0.000127281 2.68168
0.285 0.015 -0.0267784 0.000909384 -0.000131779 2.76433
0.29 0.015 -0.027672 0.000928567 -0.000136375 2.84831
0.295 0.015 -0.028582 0.000946527 -0.000141064 2.93347
0.3 0.015 -0.029507 0.000963218 -0.00014584 3.01968
0.305 0.015 -0.0304458 0.000978594 -0.000150696 3.10681
0.31 0.015 -0.0313969 0.000992607 -0.000155626 3.1947
0.315 0.015 -0.0323591 0.00100521 -0.000160622 3.28321
0.32 0.015 -0.0333308 0.00101635 -0.000165678 3.3722
0.325 0.015 -0.0343105 0.00102597 -0.000170786 3.46152
0.33 0.015 -0.0352967 0.00103404 -0.000175938 3.551
0.335 0.015 -0.0362879 0.00104049 -0.000181126 3.64051
0.34 0.015 -0.0372823 0.00104529 -0.000186343 3.72987
0.345 0.015 -0.0382784 0.00104838 -0.000191579 3.81893
0.35 0.015 -0.0392745 0.00104973 -0.000196827 3.90753
0.355 0.015 -0.0402688 0.0010493 -0.000202077 3.9955
0.36 0.015 -0.0412596 0.00104703 -0.00020732 4.08269
0.365 0.015 -0.0422451 0.00104291 -0.000212547 4.16893
0.37 0.015 -0.0432235 0.00103689 -0.000217749 4.25406
0.375 0.015 -0.044193 0.00102896 -0.000222916 4.3379
0.38 0.015 -0.0451517 0.00101907 -0.000228039 4.4203
0.385 0.015 -0.0460979 0.00100721 -0.000233107 4.5011
0.39 0.015 -0.0470295 0.000993371 -0.000238111 4.58012
0.395 0.015 -0.0479449 0.000977528 -0.00024304 4.65722
0.4 0.015 -0.048842 0.000959676 -0.000247886 4.73222
0.405 0.015 -0.049719 0.000939809 -0.000252637 4.80498
0.41 0.015 -0.0505741 0.000917928 -0.000257284 4.87534
0.415 0.015 -0.0514054 0.000894037 -0.000261817 4.94314
0.42 0.015 -0.052211 0.000868145 -0.000266225 5.00825
0.425 0.015 -0.0529892 0.000840266 -0.000270498 5.0705
0.43 0.015 -0.0537382 0.00081042 -0.000274627 5.12976
0.435 0.015 -0.0544561 0.00077863 -0.000278603 5.1859
0.44 0.015 -0.0551413 0.000744926 -0.000282414 5.23878
0.445 0.015 -0.055792 0.000709342 -0.000286052 5.28828
0.45 0.015 -0.0564067 0.000671918 -0.000289507 5.33426
0.455 0.015 -0.0569837 0.000632698 -0.000292771 5.37662
0.46 0.015 -0.0575214 0.000591733 -0.000295834 5.41524
0.465 0.015 -0.0580183 0.000549078 -0.000298689 5.45002
0.47 0.015 -0.0584731 0.000504793 -0.000301325 5.48085
0.475 0.015 -0.0588844 0.000458945 -0.000303737 5.50766
0.48 0.015 -0.0592507 0.000411604 -0.000305915 5.53035
0.485 0.015 -0.059571 0.000362847 -0.000307853 5.54884
0.49 0.015 -0.059844 0.000312757 -0.000309544 5.56306
0.495 0.015 -0.0600687 0.000261419 -0.000310981 5.57296
0.5 0.015 -0.0602442 0.000208925 -0.000312158 5.57847
0.505 0.015 -0.0603694 0.000155373 -0.00031307 5.57955
0.51 0.015 -0.0604436 0.000100864 -0.000313712 5.57617
0.515 0.015 -0.0604661 4.55061e-05 -0.000314079 5.56828
0.52 0.015 -0.0604363 -1.05907e-05 -0.000314167 5.55588
0.525 0.015 -0.0603537 -6.73099e-05 -0.000313973 5.53894
0.53 0.015 -0.0602179 -0.000124531 -0.000313494 5.51747
0.535 0.015 -0.0600287 -0.000182131 -0.000312728 5.49147
0.54 0.015 -0.0597859 -0.00023998 -0.000311673 5.46095
0.545 0.015 -0.0594893 -0.000297946 -0.000310328 5.42594
0.55 0.015 -0.0591392 -0.000355895 -0.000308694 5.38647
0.555 0.015 -0.0587358 -0.000413688 -0.000306769 5.34259
0.56 0.015 -0.0582792 -0.000471184 -0.000304557 5.29435
0.565 0.015 -0.0577701 -0.000528241 -0.000302058 5.2418
0.57 0.015 -0.057209 -0.000584712 -0.000299275 5.18502
0.575 0.015 -0.0565965 -0.000640452 -0.000296211 5.12409
0.58 0.015 -0.0559335 -0.000695314 -0.00029287 5.05909
0.585 0.015 -0.055221 -0.000749148 -0.000289258 4.99014
0.59 0.015 -0.0544601 -0.000801808 -0.000285379 4.91732
0.595 0.015 -0.053652 -0.000853147 -0.00028124 4.84077
0.6 0.015 -0.0527981 -0.000903019 -0.000276848 4.7606
0.605 0.015 -0.0518997 -0.00095128 -0.00027221 4.67695
0.61 0.015 -0.0509586 -0.00099779 -0.000267335 4.58996
0.615 0.015 -0.0499764 -0.00104241 -0.000262232 4.49978
0.62 0.015 -0.048955 -0.001085 -0.000256911 4.40656
0.625 0.015 -0.0478963 -0.00112545 -0.000251382 4.31048
0.63 0.015 -0.0468024 -0.00116361 -0.000245657 4.2117
0.635 0.015 -0.0456754 -0.00119938 -0.000239746 4.1104
0.64 0.015 -0.0445175 -0.00123264 -0.000233663 4.00677
0.645 0.015 -0.0433312 -0.00126329 -0.00022742 3.90099
0.65 0.015 -0.0421189 -0.00129123 -0.00022103 3.79327
0.655 0.015 -0.040883 -0.00131637 -0.000214508 3.6838
0.66 0.015 -0.0396261 -0.00133864 -0.000207867 3.57279
0.665 0.015 -0.0383509 -0.00135797 -0.000201122 3.46044
0.67 0.015 -0.0370601 -0.00137431 -0.000194287 3.34697
0.675 0.015 -0.0357563 -0.00138759 -0.000187379 3.23259
0.68 0.015 -0.0344425 -0.00139779 -0.000180411 3.11753
0.685 0.015 -0.0331213 -0.00140489 -0.000173401 3.00198
0.69 0.015 -0.0317956 -0.00140887 -0.000166363 2.88618
0.695 0.015 -0.0304682 -0.00140973 -0.000159312 2.77035
0.7 0.015 -0.0291418 -0.00140749 -0.000152265 2.65469
0.705 0.015 -0.0278193 -0.00140218 -0.000145237 2.53942
0.71 0.015 -0.0265035 -0.00139382 -0.000138244 2.42477
0.715 0.015 -0.025197 -0.00138248 -0.000131299 2.31094
0.72 0.015 -0.0239024 -0.00136822 -0.000124419 2.19813
0.725 0.015 -0.0226226 -0.00135111 -0.000117617 2.08655
0.73 0.015 -0.0213598 -0.00133125 -0.000110908 1.9764
0.735 0.015 -0.0201167 -0.00130872 -0.000104305 1.86787
0.74 0.015 -0.0188955 -0.00128365 -9.78207e-05 1.76115
0.745 0.015 -0.0176985 -0.00125616 -9.14683e-05 1.65642
0.75 0.015 -0.0165279 -0.00122636 -8.52592e-05 1.55384
0.755 0.015 -0.0153858 -0.00119442 -7.92047e-05 1.45359
0.76 0.015 -0.0142739 -0.00116046 -7.33151e-05 1.35581
0.765 0.015 -0.0131941 -0.00112465 -6.76001e-05 1.26065
0.77 0.015 -0.012148 -0.00108716 -6.20686e-05 1.16825
0.775 0.015 -0.0111372 -0.00104813 -5.67286e-05 1.07873
0.78 0.015 -0.0101629 -0.00100776 -5.15873e-05 0.992211
0.785 0.015 -0.00922631 -0.000966207 -4.6651e-05 0.90879
0.79 0.015 -0.00832854 -0.000923652 -4.19252e-05 0.828562
0.795 0.015 -0.00747042 -0.000880273 -3.74145e-05 0.751608
0.8 0.015 -0.00665268 -0.000836245 -3.31225e-05 0.677996
0.805 0.015 -0.00587589 -0.000791745 -2.9052e-05 0.607784
0.81 0.015 -0.00514045 -0.000746945 -2.52051e-05 0.541018
0.815 0.015 -0.00444661 -0.000702015 -2.15826e-05 0.47773
0.82 0.015 -0.00379448 -0.000657121 -1.81849e-05 0.417943
0.825 0.015 -0.003184 -0.000612422 -1.50114e-05 0.361667
0.83 0.015 -0.00261499 -0.000568072 -1.20607e-05 0.3089
0.835 0.015 -0.00208712 -0.000524216 -9.33064e-06 0.259629
0.84 0.015 -0.00159994 -0.000480993 -6.81848e-06 0.21383