Title=" Lid Driven Flow"
VARIABLES="X","Y","U","V","psi","xi"
ZONE T= "BOX", I= 201, J=201, F=POINT
0 0 0 0 0.00032139 0
0.005 0 0 0 0 0
0.01 0 0 0 0 0
0.015 0 0 0 0 161.887
0.02 0 0 0 0 176.135
0.025 0 0 0 0 155.659
0.03 0 0 0 0 133.329
0.035 0 0 0 0 115.876
0.04 0 0 0 0 103.082
0.045 0 0 0 0 93.5951
0.05 0 0 0 0 86.2999
0.055 0 0 0 0 80.4603
0.06 0 0 0 0 75.6168
0.065 0 0 0 0 71.481
0.07 0 0 0 0 67.8668
0.075 0 0 0 0 64.6499
0.08 0 0 0 0 61.7444
0.085 0 0 0 0 59.0897
0.09 0 0 0 0 56.6415
0.095 0 0 0 0 54.3674
0.1 0 0 0 0 52.2425
0.105 0 0 0 0 50.2481
0.11 0 0 0 0 48.3694
0.115 0 0 0 0 46.5946
0.12 0 0 0 0 44.9141
0.125 0 0 0 0 43.32
0.13 0 0 0 0 41.8055
0.135 0 0 0 0 40.3649
0.14 0 0 0 0 38.993
0.145 0 0 0 0 37.6853
0.15 0 0 0 0 36.4376
0.155 0 0 0 0 35.2461
0.16 0 0 0 0 34.1072
0.165 0 0 0 0 33.0178
0.17 0 0 0 0 31.9746
0.175 0 0 0 0 30.9747
0.18 0 0 0 0 30.0153
0.185 0 0 0 0 29.0939
0.19 0 0 0 0 28.2078
0.195 0 0 0 0 27.3547
0.2 0 0 0 0 26.5323
0.205 0 0 0 0 25.7385
0.21 0 0 0 0 24.9713
0.215 0 0 0 0 24.2286
0.22 0 0 0 0 23.5088
0.225 0 0 0 0 22.8101
0.23 0 0 0 0 22.1309
0.235 0 0 0 0 21.4697
0.24 0 0 0 0 20.8252
0.245 0 0 0 0 20.196
0.25 0 0 0 0 19.581
0.255 0 0 0 0 18.979
0.26 0 0 0 0 18.3892
0.265 0 0 0 0 17.8105
0.27 0 0 0 0 17.2423
0.275 0 0 0 0 16.6837
0.28 0 0 0 0 16.1343
0.285 0 0 0 0 15.5934
0.29 0 0 0 0 15.0606
0.295 0 0 0 0 14.5355
0.3 0 0 0 0 14.0179
0.305 0 0 0 0 13.5076
0.31 0 0 0 0 13.0044
0.315 0 0 0 0 12.5082
0.32 0 0 0 0 12.019
0.325 0 0 0 0 11.5369
0.33 0 0 0 0 11.0619
0.335 0 0 0 0 10.5942
0.34 0 0 0 0 10.134
0.345 0 0 0 0 9.68148
0.35 0 0 0 0 9.23694
0.355 0 0 0 0 8.80063
0.36 0 0 0 0 8.37287
0.365 0 0 0 0 7.95397
0.37 0 0 0 0 7.54425
0.375 0 0 0 0 7.14404
0.38 0 0 0 0 6.75366
0.385 0 0 0 0 6.37345
0.39 0 0 0 0 6.00369
0.395 0 0 0 0 5.64469
0.4 0 0 0 0 5.2967
0.405 0 0 0 0 4.95998
0.41 0 0 0 0 4.63473
0.415 0 0 0 0 4.32113
0.42 0 0 0 0 4.01935
0.425 0 0 0 0 3.72947
0.43 0 0 0 0 3.45159
0.435 0 0 0 0 3.18572
0.44 0 0 0 0 2.93187
0.445 0 0 0 0 2.68998
0.45 0 0 0 0 2.45999
0.455 0 0 0 0 2.24176
0.46 0 0 0 0 2.03513
0.465 0 0 0 0 1.83992
0.47 0 0 0 0 1.65591
0.475 0 0 0 0 1.48283
0.48 0 0 0 0 1.32042
0.485 0 0 0 0 1.16835
0.49 0 0 0 0 1.02632
0.495 0 0 0 0 0.893974
0.5 0 0 0 0 0.770954
0.505 0 0 0 0 0.65689
0.51 0 0 0 0 0.551404
0.515 0 0 0 0 0.454107
0.52 0 0 0 0 0.364611
0.525 0 0 0 0 0.282523
0.53 0 0 0 0 0.207453
0.535 0 0 0 0 0.139011
0.54 0 0 0 0 0.0768162
0.545 0 0 0 0 0.0204895
0.55 0 0 0 0 -0.0303383
0.555 0 0 0 0 -0.0760275
0.56 0 0 0 0 -0.116929
0.565 0 0 0 0 -0.15338
0.57 0 0 0 0 -0.18571
0.575 0 0 0 0 -0.21423
0.58 0 0 0 0 -0.239241
0.585 0 0 0 0 -0.261027
0.59 0 0 0 0 -0.27986
0.595 0 0 0 0 -0.295993
0.6 0 0 0 0 -0.309664
0.605 0 0 0 0 -0.321097
0.61 0 0 0 0 -0.330498
0.615 0 0 0 0 -0.338057
0.62 0 0 0 0 -0.34395
0.625 0 0 0 0 -0.348337
0.63 0 0 0 0 -0.351363
0.635 0 0 0 0 -0.35316
0.64 0 0 0 0 -0.353848
0.645 0 0 0 0 -0.353533
0.65 0 0 0 0 -0.352311
0.655 0 0 0 0 -0.35027
0.66 0 0 0 0 -0.347488
0.665 0 0 0 0 -0.344034
0.67 0 0 0 0 -0.339973
0.675 0 0 0 0 -0.335362
0.68 0 0 0 0 -0.330255
0.685 0 0 0 0 -0.324701
0.69 0 0 0 0 -0.318746
0.695 0 0 0 0 -0.312435
0.7 0 0 0 0 -0.305808
0.705 0 0 0 0 -0.298904
0.71 0 0 0 0 -0.291763
0.715 0 0 0 0 -0.28442
0.72 0 0 0 0 -0.276911
0.725 0 0 0 0 -0.269271
0.73 0 0 0 0 -0.261534
0.735 0 0 0 0 -0.253731
0.74 0 0 0 0 -0.245893
0.745 0 0 0 0 -0.23805
0.75 0 0 0 0 -0.230231
0.755 0 0 0 0 -0.222462
0.76 0 0 0 0 -0.214767
0.765 0 0 0 0 -0.20717
0.77 0 0 0 0 -0.199692
0.775 0 0 0 0 -0.192351
0.78 0 0 0 0 -0.185164
0.785 0 0 0 0 -0.178147
0.79 0 0 0 0 -0.17131
0.795 0 0 0 0 -0.164665
0.8 0 0 0 0 -0.158219
0.805 0 0 0 0 -0.151978
0.81 0 0 0 0 -0.145945
0.815 0 0 0 0 -0.140122
0.82 0 0 0 0 -0.134509
0.825 0 0 0 0 -0.129101
0.83 0 0 0 0 -0.123896
0.835 0 0 0 0 -0.118887
0.84 0 0 0 0 -0.114066
0.845 0 0 0 0 -0.109424
0.85 0 0 0 0 -0.10495
0.855 0 0 0 0 -0.100633
0.86 0 0 0 0 -0.0964579
0.865 0 0 0 0 -0.092412
0.87 0 0 0 0 -0.0884801
0.875 0 0 0 0 -0.0846466
0.88 0 0 0 0 -0.0808954
0.885 0 0 0 0 -0.0772103
0.89 0 0 0 0 -0.0735748
0.895 0 0 0 0 -0.0699728
0.9 0 0 0 0 -0.0663884
0.905 0 0 0 0 -0.0628068
0.91 0 0 0 0 -0.0592141
0.915 0 0 0 0 -0.055598
0.92 0 0 0 0 -0.0519482
0.925 0 0 0 0 -0.0482567
0.93 0 0 0 0 -0.0445188
0.935 0 0 0 0 -0.0407334
0.94 0 0 0 0 -0.0369039
0.945 0 0 0 0 -0.0330391
0.95 0 0 0 0 -0.0291542
0.955 0 0 0 0 -0.0252721
0.96 0 0 0 0 -0.0214242
0.965 0 0 0 0 -0.0176528
0.97 0 0 0 0 -0.014012
0.975 0 0 0 0 -0.0105702
0.98 0 0 0 0 -0.00741171
0.985 0 0 0 0 -0.00463808
0.99 0 0 0 0 -0.0023673
0.995 0 0 0 0 -0.000726286
1 0 0 0 0 0.00017517
0 0.005 0 0 0 0
0.005 0.005 0 0 0 0
0.01 0.005 0 0 0 73.7228
0.015 0.005 0 0 0 61.9676
0.02 0.005 0 0 0 45.4937
0.025 0.005 0 0 0 33.6581
0.03 0.005 0 0 0 25.7848
0.035 0.005 0 0 0 20.467
0.04 0.005 0 0 0 16.739
0.045 0.005 0 0 0 14.0229
0.05 0.005 0 0 0 11.9764
0.055 0.005 0 0 0 10.3912
0.06 0.005 0 0 0 9.1355
0.065 0.005 0 0 0 8.12223
0.07 0.005 0 0 0 7.29205
0.075 0.005 0 0 0 6.60306
0.08 0.005 0 0 0 6.02497
0.085 0.005 0 0 0 5.53531
0.09 0.005 0 0 0 5.11714
0.095 0.005 0 0 0 4.75744
0.1 0.005 0 0 0 4.44606
0.105 0.005 0 0 0 4.175
0.11 0.005 0 0 0 3.93786
0.115 0.005 0 0 0 3.72949
0.12 0.005 0 0 0 3.54567
0.125 0.005 0 0 0 3.38297
0.13 0.005 0 0 0 3.2385
0.135 0.005 0 0 0 3.10989
0.14 0.005 0 0 0 2.99513
0.145 0.005 0 0 0 2.8925
0.15 0.005 0 0 0 2.80058
0.155 0.005 0 0 0 2.71811
0.16 0.005 0 0 0 2.64403
0.165 0.005 0 0 0 2.57742
0.17 0.005 0 0 0 2.51748
0.175 0.005 0 0 0 2.46351
0.18 0.005 0 0 0 2.41488
0.185 0.005 0 0 0 2.37107
0.19 0.005 0 0 0 2.33158
0.195 0.005 0 0 0 2.29599
0.2 0.005 0 0 0 2.26393
0.205 0.005 0 0 0 2.23506
0.21 0.005 0 0 0 2.20906
0.215 0.005 0 0 0 2.18566
0.22 0.005 0 0 0 2.16462
0.225 0.005 0 0 0 2.14571
0.23 0.005 0 0 0 2.12873
0.235 0.005 0 0 0 2.11348
0.24 0.005 0 0 0 2.0998
0.245 0.005 0 0 0 2.08754
0.25 0.005 0 0 0 2.07654
0.255 0.005 0 0 0 2.06667
0.26 0.005 0 0 0 2.05782
0.265 0.005 0 0 0 2.04986
0.27 0.005 0 0 0 2.0427
0.275 0.005 0 0 0 2.03623
0.28 0.005 0 0 0 2.03037
0.285 0.005 0 0 0 2.02503
0.29 0.005 0 0 0 2.02013
0.295 0.005 0 0 0 2.0156
0.3 0.005 0 0 0 2.01136
0.305 0.005 0 0 0 2.00736
0.31 0.005 0 0 0 2.00353
0.315 0.005 0 0 0 1.99982
0.32 0.005 0 0 0 1.99617
0.325 0.005 0 0 0 1.99253
0.33 0.005 0 0 0 1.98886
0.335 0.005 0 0 0 1.98511
0.34 0.005 0 0 0 1.98124
0.345 0.005 0 0 0 1.97722
0.35 0.005 0 0 0 1.97301
0.355 0.005 0 0 0 1.96857
0.36 0.005 0 0 0 1.96387
0.365 0.005 0 0 0 1.95889
0.37 0.005 0 0 0 1.9536
0.375 0.005 0 0 0 1.94797
0.38 0.005 0 0 0 1.94199
0.385 0.005 0 0 0 1.93562
0.39 0.005 0 0 0 1.92887
0.395 0.005 0 0 0 1.9217
0.4 0.005 0 0 0 1.9141
0.405 0.005 0 0 0 1.90606
0.41 0.005 0 0 0 1.89758
0.415 0.005 0 0 0 1.88863
0.42 0.005 0 0 0 1.87921
0.425 0.005 0 0 0 1.86932
0.43 0.005 0 0 0 1.85895
0.435 0.005 0 0 0 1.84809
0.44 0.005 0 0 0 1.83675
0.445 0.005 0 0 0 1.82493
0.45 0.005 0 0 0 1.81262
0.455 0.005 0 0 0 1.79982
0.46 0.005 0 0 0 1.78655
0.465 0.005 0 0 0 1.7728
0.47 0.005 0 0 0 1.75857
0.475 0.005 0 0 0 1.74389
0.48 0.005 0 0 0 1.72874
0.485 0.005 0 0 0 1.71315
0.49 0.005 0 0 0 1.69712
0.495 0.005 0 0 0 1.68065
0.5 0.005 0 0 0 1.66377
0.505 0.005 0 0 0 1.64648
0.51 0.005 0 0 0 1.62879
0.515 0.005 0 0 0 1.61073
0.52 0.005 0 0 0 1.59229
0.525 0.005 0 0 0 1.57349
0.53 0.005 0 0 0 1.55435
0.535 0.005 0 0 0 1.53489
0.54 0.005 0 0 0 1.51511
0.545 0.005 0 0 0 1.49503
0.55 0.005 0 0 0 1.47467
0.555 0.005 0 0 0 1.45404
0.56 0.005 0 0 0 1.43316
0.565 0.005 0 0 0 1.41205
0.57 0.005 0 0 0 1.39071
0.575 0.005 0 0 0 1.36917
0.58 0.005 0 0 0 1.34744
0.585 0.005 0 0 0 1.32554
0.59 0.005 0 0 0 1.30348
0.595 0.005 0 0 0 1.28128
0.6 0.005 0 0 0 1.25895
0.605 0.005 0 0 0 1.2365
0.61 0.005 0 0 0 1.21396
0.615 0.005 0 0 0 1.19134
0.62 0.005 0 0 0 1.16864
0.625 0.005 0 0 0 1.14589
0.63 0.005 0 0 0 1.1231
0.635 0.005 0 0 0 1.10028
0.64 0.005 0 0 0 1.07744
0.645 0.005 0 0 0 1.0546
0.65 0.005 0 0 0 1.03177
0.655 0.005 0 0 0 1.00896
0.66 0.005 0 0 0 0.986182
0.665 0.005 0 0 0 0.963446
0.67 0.005 0 0 0 0.940765
0.675 0.005 0 0 0 0.918147
0.68 0.005 0 0 0 0.895604
0.685 0.005 0 0 0 0.873145
0.69 0.005 0 0 0 0.850779
0.695 0.005 0 0 0 0.828515
0.7 0.005 0 0 0 0.806361
0.705 0.005 0 0 0 0.784328
0.71 0.005 0 0 0 0.762421
0.715 0.005 0 0 0 0.74065
0.72 0.005 0 0 0 0.719021
0.725 0.005 0 0 0 0.697543
0.73 0.005 0 0 0 0.676222
0.735 0.005 0 0 0 0.655066
0.74 0.005 0 0 0 0.63408
0.745 0.005 0 0 0 0.613273
0.75 0.005 0 0 0 0.59265
0.755 0.005 0 0 0 0.572218
0.76 0.005 0 0 0 0.551983
0.765 0.005 0 0 0 0.531953
0.77 0.005 0 0 0 0.512132
0.775 0.005 0 0 0 0.492528
0.78 0.005 0 0 0 0.473148
0.785 0.005 0 0 0 0.453997
0.79 0.005 0 0 0 0.435082
0.795 0.005 0 0 0 0.416411
0.8 0.005 0 0 0 0.39799
0.805 0.005 0 0 0 0.379826
0.81 0.005 0 0 0 0.361927
0.815 0.005 0 0 0 0.3443
0.82 0.005 0 0 0 0.326954
0.825 0.005 0 0 0 0.309896
0.83 0.005 0 0 0 0.293135
0.835 0.005 0 0 0 0.276681
0.84 0.005 0 0 0 0.260542
0.845 0.005 0 0 0 0.244729
0.85 0.005 0 0 0 0.229251
0.855 0.005 0 0 0 0.214121
0.86 0.005 0 0 0 0.199348
0.865 0.005 0 0 0 0.184946
0.87 0.005 0 0 0 0.170927
0.875 0.005 0 0 0 0.157304
0.88 0.005 0 0 0 0.144093
0.885 0.005 0 0 0 0.131306
0.89 0.005 0 0 0 0.118962
0.895 0.005 0 0 0 0.107075
0.9 0.005 0 0 0 0.0956648
0.905 0.005 0 0 0 0.0847491
0.91 0.005 0 0 0 0.074348
0.915 0.005 0 0 0 0.0644825
0.92 0.005 0 0 0 0.0551749
0.925 0.005 0 0 0 0.0464485
0.93 0.005 0 0 0 0.0383282
0.935 0.005 0 0 0 0.0308399
0.94 0.005 0 0 0 0.0240105
0.945 0.005 0 0 0 0.0178681
0.95 0.005 0 0 0 0.0124411
0.955 0.005 0 0 0 0.00775802
0.96 0.005 0 0 0 0.00384595
0.965 0.005 0 0 0 0.000729058
0.97 0.005 0 0 0 -0.00157454
0.975 0.005 0 0 0 -0.0030579
0.98 0.005 0 0 0 -0.00373404
0.985 0.005 0 0 0 -0.00365137
0.99 0.005 0 0 0 -0.00292092
0.995 0.005 0 0 0 -0.00176343
1 0.005 0 0 0 -0.000579903
0 0.01 0 0 -0.000579903 0
0.005 0.01 0 0 0 -326.277
0.01 0.01 -0.179936 0.0774595 -0.000921535 -44.4875
0.015 0.01 -0.184418 -0.0352864 -0.000774595 9.44014
0.02 0.01 -0.155583 -0.0353868 -0.000568671 19.0588
0.025 0.01 -0.126617 -0.0246361 -0.000420727 18.9697
0.03 0.01 -0.103408 -0.0164889 -0.00032231 16.856
0.035 0.01 -0.0856882 -0.0113073 -0.000255837 14.6032
0.04 0.01 -0.0721858 -0.00805514 -0.000209237 12.6413
0.045 0.01 -0.0617649 -0.00595322 -0.000175286 11.0179
0.05 0.01 -0.0535875 -0.00453951 -0.000149705 9.68927
0.055 0.01 -0.0470634 -0.00355111 -0.00012989 8.59882
0.06 0.01 -0.0417789 -0.00283626 -0.000114194 7.69729
0.065 0.01 -0.0374406 -0.00230431 -0.000101528 6.94555
0.07 0.01 -0.0338369 -0.00189895 -9.11505e-05 6.31334
0.075 0.01 -0.0308124 -0.00158383 -8.25382e-05 5.77735
0.08 0.01 -0.0282508 -0.00133468 -7.5312e-05 5.31958
0.085 0.01 -0.0260638 -0.00113477 -6.91913e-05 4.92597
0.09 0.01 -0.0241834 -0.000972334 -6.39642e-05 4.58548
0.095 0.01 -0.0225564 -0.000838844 -5.94678e-05 4.2893
0.1 0.01 -0.0211407 -0.00072804 -5.55756e-05 4.0304
0.105 0.01 -0.0199027 -0.000635236 -5.21873e-05 3.80307
0.11 0.01 -0.0188153 -0.000556875 -4.92231e-05 3.60265
0.115 0.01 -0.0178563 -0.000490218 -4.66185e-05 3.42532
0.12 0.01 -0.0170076 -0.000433136 -4.43208e-05 3.2679
0.125 0.01 -0.016254 -0.000383952 -4.2287e-05 3.12777
0.13 0.01 -0.0155832 -0.000341333 -4.04812e-05 3.00269
0.135 0.01 -0.0149844 -0.000304214 -3.88736e-05 2.89079
0.14 0.01 -0.0144488 -0.00027173 -3.7439e-05 2.79048
0.145 0.01 -0.0139689 -0.000243179 -3.61562e-05 2.7004
0.15 0.01 -0.013538 -0.000217986 -3.50071e-05 2.61938
0.155 0.01 -0.0131508 -0.000195674 -3.39763e-05 2.5464
0.16 0.01 -0.0128023 -0.000175849 -3.30503e-05 2.48061
0.165 0.01 -0.0124883 -0.000158181 -3.22178e-05 2.42123
0.17 0.01 -0.0122052 -0.000142391 -3.14685e-05 2.36759
0.175 0.01 -0.0119499 -0.000128247 -3.07938e-05 2.31911
0.18 0.01 -0.0117194 -0.000115549 -3.0186e-05 2.27528
0.185 0.01 -0.0115113 -0.000104127 -2.96383e-05 2.23563
0.19 0.01 -0.0113234 -9.38381e-05 -2.91447e-05 2.19975
0.195 0.01 -0.0111538 -8.45559e-05 -2.86999e-05 2.16729
0.2 0.01 -0.0110006 -7.61731e-05 -2.82992e-05 2.13791
0.205 0.01 -0.0108624 -6.85964e-05 -2.79382e-05 2.11133
0.21 0.01 -0.0107376 -6.17446e-05 -2.76133e-05 2.08728
0.215 0.01 -0.010625 -5.5547e-05 -2.73208e-05 2.06553
0.22 0.01 -0.0105235 -4.99413e-05 -2.70578e-05 2.04585
0.225 0.01 -0.010432 -4.48732e-05 -2.68215e-05 2.02804
0.23 0.01 -0.0103495 -4.02946e-05 -2.66092e-05 2.01194
0.235 0.01 -0.0102752 -3.61629e-05 -2.64186e-05 1.99738
0.24 0.01 -0.0102083 -3.24404e-05 -2.62476e-05 1.9842
0.245 0.01 -0.010148 -2.90936e-05 -2.60943e-05 1.97228
0.25 0.01 -0.0100936 -2.60926e-05 -2.59568e-05 1.96147
0.255 0.01 -0.0100446 -2.34105e-05 -2.58335e-05 1.95167
0.26 0.01 -0.0100003 -2.10232e-05 -2.57228e-05 1.94276
0.265 0.01 -0.00996028 -1.8909e-05 -2.56234e-05 1.93465
0.27 0.01 -0.00992397 -1.70483e-05 -2.55339e-05 1.92723
0.275 0.01 -0.00989093 -1.54234e-05 -2.5453e-05 1.92044
0.28 0.01 -0.00986073 -1.4018e-05 -2.53798e-05 1.91418
0.285 0.01 -0.00983297 -1.28173e-05 -2.5313e-05 1.90837
0.29 0.01 -0.00980727 -1.18078e-05 -2.52518e-05 1.90296
0.295 0.01 -0.00978329 -1.09771e-05 -2.51951e-05 1.89786
0.3 0.01 -0.00976071 -1.03136e-05 -2.51422e-05 1.89303
0.305 0.01 -0.00973921 -9.80673e-06 -2.50922e-05 1.8884
0.31 0.01 -0.00971851 -9.44652e-06 -2.50443e-05 1.88392
0.315 0.01 -0.00969835 -9.22376e-06 -2.49979e-05 1.87954
0.32 0.01 -0.00967847 -9.12979e-06 -2.49523e-05 1.87522
0.325 0.01 -0.00965864 -9.15647e-06 -2.49069e-05 1.8709
0.33 0.01 -0.00963863 -9.29613e-06 -2.4861e-05 1.86655
0.335 0.01 -0.00961826 -9.54149e-06 -2.48141e-05 1.86212
0.34 0.01 -0.00959731 -9.88566e-06 -2.47658e-05 1.85759
0.345 0.01 -0.00957561 -1.03221e-05 -2.47155e-05 1.85292
0.35 0.01 -0.009553 -1.08444e-05 -2.46628e-05 1.84807
0.355 0.01 -0.00952932 -1.14466e-05 -2.46073e-05 1.84302
0.36 0.01 -0.00950443 -1.2123e-05 -2.45486e-05 1.83775
0.365 0.01 -0.00947819 -1.2868e-05 -2.44864e-05 1.83222
0.37 0.01 -0.00945048 -1.36761e-05 -2.44203e-05 1.82641
0.375 0.01 -0.00942118 -1.45423e-05 -2.43499e-05 1.82031
0.38 0.01 -0.00939019 -1.54614e-05 -2.42751e-05 1.81389
0.385 0.01 -0.00935743 -1.64287e-05 -2.41956e-05 1.80714
0.39 0.01 -0.0093228 -1.74393e-05 -2.41111e-05 1.80003
0.395 0.01 -0.00928623 -1.84888e-05 -2.40215e-05 1.79257
0.4 0.01 -0.00924765 -1.95726e-05 -2.39266e-05 1.78472
0.405 0.01 -0.009207 -2.06865e-05 -2.38261e-05 1.7765
0.41 0.01 -0.00916422 -2.18263e-05 -2.372e-05 1.76787
0.415 0.01 -0.00911929 -2.29879e-05 -2.36082e-05 1.75884
0.42 0.01 -0.00907216 -2.41674e-05 -2.34905e-05 1.7494
0.425 0.01 -0.0090228 -2.5361e-05 -2.33668e-05 1.73955
0.43 0.01 -0.00897118 -2.6565e-05 -2.32372e-05 1.72927
0.435 0.01 -0.00891731 -2.77757e-05 -2.31015e-05 1.71857
0.44 0.01 -0.00886116 -2.89899e-05 -2.29597e-05 1.70745
0.445 0.01 -0.00880273 -3.02042e-05 -2.28119e-05 1.69591
0.45 0.01 -0.00874204 -3.14153e-05 -2.2658e-05 1.68394
0.455 0.01 -0.00867908 -3.26202e-05 -2.24981e-05 1.67155
0.46 0.01 -0.00861387 -3.38161e-05 -2.23322e-05 1.65875
0.465 0.01 -0.00854644 -3.5e-05 -2.21603e-05 1.64553
0.47 0.01 -0.00847681 -3.61694e-05 -2.19825e-05 1.63191
0.475 0.01 -0.00840502 -3.73218e-05 -2.17989e-05 1.61788
0.48 0.01 -0.00833108 -3.84546e-05 -2.16096e-05 1.60345
0.485 0.01 -0.00825506 -3.95658e-05 -2.14147e-05 1.58864
0.49 0.01 -0.00817698 -4.06531e-05 -2.12143e-05 1.57345
0.495 0.01 -0.0080969 -4.17146e-05 -2.10085e-05 1.55788
0.5 0.01 -0.00801486 -4.27485e-05 -2.07975e-05 1.54196
0.505 0.01 -0.00793093 -4.3753e-05 -2.05813e-05 1.52568
0.51 0.01 -0.00784515 -4.47268e-05 -2.03603e-05 1.50906
0.515 0.01 -0.00775759 -4.56682e-05 -2.01344e-05 1.49211
0.52 0.01 -0.00766831 -4.6576e-05 -1.99039e-05 1.47485
0.525 0.01 -0.00757738 -4.74492e-05 -1.96689e-05 1.45728
0.53 0.01 -0.00748485 -4.82867e-05 -1.94297e-05 1.43941
0.535 0.01 -0.0073908 -4.90876e-05 -1.91864e-05 1.42127
0.54 0.01 -0.0072953 -4.98512e-05 -1.89391e-05 1.40285
0.545 0.01 -0.00719842 -5.05769e-05 -1.86882e-05 1.38418
0.55 0.01 -0.00710022 -5.12641e-05 -1.84337e-05 1.36527
0.555 0.01 -0.00700079 -5.19125e-05 -1.81758e-05 1.34614
0.56 0.01 -0.00690019 -5.25219e-05 -1.79148e-05 1.32678
0.565 0.01 -0.00679851 -5.3092e-05 -1.76509e-05 1.30723
0.57 0.01 -0.0066958 -5.36229e-05 -1.73842e-05 1.28749
0.575 0.01 -0.00659214 -5.41146e-05 -1.71149e-05 1.26758
0.58 0.01 -0.00648762 -5.45673e-05 -1.68433e-05 1.24751
0.585 0.01 -0.00638229 -5.49811e-05 -1.65695e-05 1.22729
0.59 0.01 -0.00627624 -5.53565e-05 -1.62938e-05 1.20693
0.595 0.01 -0.00616954 -5.56938e-05 -1.60162e-05 1.18646
0.6 0.01 -0.00606224 -5.59935e-05 -1.57371e-05 1.16588
0.605 0.01 -0.00595444 -5.62563e-05 -1.54565e-05 1.14521
0.61 0.01 -0.00584618 -5.64826e-05 -1.51747e-05 1.12446
0.615 0.01 -0.00573755 -5.66731e-05 -1.48919e-05 1.10364
0.62 0.01 -0.00562861 -5.68287e-05 -1.46082e-05 1.08276
0.625 0.01 -0.00551941 -5.695e-05 -1.43239e-05 1.06184
0.63 0.01 -0.00541003 -5.70379e-05 -1.4039e-05 1.04089
0.635 0.01 -0.00530053 -5.70931e-05 -1.37537e-05 1.01992
0.64 0.01 -0.00519096 -5.71166e-05 -1.34682e-05 0.998932
0.645 0.01 -0.00508139 -5.71093e-05 -1.31827e-05 0.977949
0.65 0.01 -0.00497187 -5.7072e-05 -1.28973e-05 0.956979
0.655 0.01 -0.00486246 -5.70056e-05 -1.26122e-05 0.93603
0.66 0.01 -0.0047532 -5.6911e-05 -1.23275e-05 0.915114
0.665 0.01 -0.00464416 -5.67893e-05 -1.20433e-05 0.894239
0.67 0.01 -0.00453539 -5.66412e-05 -1.17597e-05 0.873415
0.675 0.01 -0.00442692 -5.64676e-05 -1.1477e-05 0.85265
0.68 0.01 -0.00431881 -5.62695e-05 -1.11952e-05 0.831955
0.685 0.01 -0.0042111 -5.60476e-05 -1.09145e-05 0.811337
0.69 0.01 -0.00410384 -5.58028e-05 -1.06349e-05 0.790804
0.695 0.01 -0.00399707 -5.55359e-05 -1.03566e-05 0.770364
0.7 0.01 -0.00389083 -5.52477e-05 -1.00797e-05 0.750025
0.705 0.01 -0.00378516 -5.49389e-05 -9.80422e-06 0.729795
0.71 0.01 -0.0036801 -5.46101e-05 -9.53039e-06 0.709679
0.715 0.01 -0.00357567 -5.4262e-05 -9.25824e-06 0.689686
0.72 0.01 -0.00347193 -5.38952e-05 -8.98788e-06 0.669823
0.725 0.01 -0.00336891 -5.35102e-05 -8.7194e-06 0.650095
0.73 0.01 -0.00326663 -5.31075e-05 -8.45288e-06 0.630509
0.735 0.01 -0.00316514 -5.26876e-05 -8.18842e-06 0.611071
0.74 0.01 -0.00306446 -5.22507e-05 -7.9261e-06 0.591788
0.745 0.01 -0.00296462 -5.17972e-05 -7.666e-06 0.572665
0.75 0.01 -0.00286567 -5.13274e-05 -7.40821e-06 0.553709
0.755 0.01 -0.00276762 -5.08414e-05 -7.1528e-06 0.534925
0.76 0.01 -0.00267051 -5.03393e-05 -6.89987e-06 0.51632
0.765 0.01 -0.00257437 -4.98213e-05 -6.64948e-06 0.497898
0.77 0.01 -0.00247923 -4.92872e-05 -6.40172e-06 0.479667
0.775 0.01 -0.00238513 -4.8737e-05 -6.15667e-06 0.461631
0.78 0.01 -0.00229208 -4.81704e-05 -5.9144e-06 0.443797
0.785 0.01 -0.00220013 -4.75874e-05 -5.67501e-06 0.426171
0.79 0.01 -0.0021093 -4.69875e-05 -5.43858e-06 0.408759
0.795 0.01 -0.00201964 -4.63705e-05 -5.20518e-06 0.391567
0.8 0.01 -0.00193116 -4.57357e-05 -4.97491e-06 0.374603
0.805 0.01 -0.00184392 -4.50828e-05 -4.74786e-06 0.357871
0.81 0.01 -0.00175793 -4.44111e-05 -4.52412e-06 0.34138
0.815 0.01 -0.00167325 -4.37199e-05 -4.30378e-06 0.325137
0.82 0.01 -0.0015899 -4.30084e-05 -4.08695e-06 0.309149
0.825 0.01 -0.00150793 -4.22759e-05 -3.87372e-06 0.293423
0.83 0.01 -0.00142738 -4.15213e-05 -3.66421e-06 0.277968
0.835 0.01 -0.00134829 -4.07437e-05 -3.45853e-06 0.262792
0.84 0.01 -0.00127071 -3.9942e-05 -3.25679e-06 0.247904
0.845 0.01 -0.00119469 -3.91151e-05 -3.05912e-06 0.233313
0.85 0.01 -0.00112027 -3.82615e-05 -2.86565e-06 0.219029
0.855 0.01 -0.00104751 -3.738e-05 -2.67652e-06 0.205062
0.86 0.01 -0.000976464 -3.64691e-05 -2.49186e-06 0.191422
0.865 0.01 -0.000907191 -3.55272e-05 -2.31183e-06 0.178122
0.87 0.01 -0.000839751 -3.45526e-05 -2.13659e-06 0.165171
0.875 0.01 -0.000774208 -3.35434e-05 -1.96631e-06 0.152584
0.88 0.01 -0.000710631 -3.24979e-05 -1.80116e-06 0.140373
0.885 0.01 -0.000649092 -3.14138e-05 -1.64133e-06 0.128551
0.89 0.01 -0.000589665 -3.0289e-05 -1.48702e-06 0.117134
0.895 0.01 -0.000532431 -2.9121e-05 -1.33844e-06 0.106135
0.9 0.01 -0.000477473 -2.79075e-05 -1.19581e-06 0.0955722
0.905 0.01 -0.00042488 -2.66457e-05 -1.05936e-06 0.0854607
0.91 0.01 -0.000374746 -2.53329e-05 -9.29345e-07 0.0758185
0.915 0.01 -0.000327167 -2.3966e-05 -8.06026e-07 0.0666636
0.92 0.01 -0.000282248 -2.2542e-05 -6.89681e-07 0.0580152
0.925 0.01 -0.000240095 -2.10578e-05 -5.80601e-07 0.0498928
0.93 0.01 -0.000200822 -1.95103e-05 -4.79098e-07 0.0423167
0.935 0.01 -0.000164544 -1.78966e-05 -3.85493e-07 0.0353075
0.94 0.01 -0.000131381 -1.62142e-05 -3.00126e-07 0.0288857
0.945 0.01 -0.000101455 -1.44612e-05 -2.23346e-07 0.0230718
0.95 0.01 -7.48845e-05 -1.26371e-05 -1.5551e-07 0.0178849
0.955 0.01 -5.17864e-05 -1.07435e-05 -9.69712e-08 0.0133423
0.96 0.01 -3.22645e-05 -8.78579e-06 -4.80707e-08 0.00945765
0.965 0.01 -1.64028e-05 -6.77524e-06 -9.11015e-09 0.00623888
0.97 0.01 -4.24993e-06 -4.73339e-06 1.96842e-08 0.00368475
0.975 0.01 4.20416e-06 -2.69913e-06 3.82257e-08 0.00177993
0.98 0.01 9.06456e-06 -7.41638e-07 4.66769e-08 0.000487678
0.985 0.01 1.05891e-05 1.01654e-06 4.56429e-08 -0.000260379
0.99 0.01 9.27789e-06 2.36e-06 3.65119e-08 -0.000576727
0.995 0.01 6.0064e-06 2.92631e-06 2.2043e-08 -0.00062613
1 0.01 2.20104e-06 2.2043e-06 7.24877e-09 -0.000602345
0 0.015 0 0 -0.00176083 0
0.005 0.015 0 0 0 -256.051
0.01 0.015 -0.152599 0.184418 -0.00179936 -79.3674
0.015 0.015 -0.205565 -0.0243523 -0.00184418 -16.667
0.02 0.015 -0.203603 -0.0578008 -0.00155583 2.41533
0.025 0.015 -0.183636 -0.0521757 -0.00126617 8.12196
0.03 0.015 -0.160629 -0.0409287 -0.00103408 9.50597
0.035 0.015 -0.139543 -0.031222 -0.000856882 9.42046
0.04 0.015 -0.121566 -0.0239232 -0.000721858 8.84924
0.045 0.015 -0.10661 -0.0185983 -0.000617649 8.15234
0.05 0.015 -0.0942392 -0.0147015 -0.000535875 7.46341
0.055 0.015 -0.0839823 -0.0118086 -0.000470634 6.82932
0.06 0.015 -0.0754294 -0.00962276 -0.000417788 6.26267
0.065 0.015 -0.0682476 -0.00794191 -0.000374406 5.76266
0.07 0.015 -0.0621736 -0.00662816 -0.000338369 5.32364
0.075 0.015 -0.0570005 -0.00558609 -0.000308124 4.93856
0.08 0.015 -0.0525657 -0.00474852 -0.000282508 4.6005
0.085 0.015 -0.0487406 -0.00406732 -0.000260638 4.30313
0.09 0.015 -0.0454228 -0.00350738 -0.000241834 4.0409
0.095 0.015 -0.0425305 -0.00304268 -0.000225564 3.80906
0.1 0.015 -0.0399973 -0.00265365 -0.000211407 3.60351
0.105 0.015 -0.0377693 -0.00232539 -0.000199027 3.42079
0.11 0.015 -0.0358023 -0.0020464 -0.000188153 3.25795
0.115 0.015 -0.0340597 -0.0018077 -0.000178563 3.11247
0.12 0.015 -0.0325112 -0.00160223 -0.000170075 2.98222
0.125 0.015 -0.0311313 -0.00142436 -0.00016254 2.86536
0.13 0.015 -0.0298986 -0.0012696 -0.000155831 2.76031
0.135 0.015 -0.0287951 -0.0011343 -0.000149844 2.66573
0.14 0.015 -0.0278052 -0.00101549 -0.000144488 2.58043
0.145 0.015 -0.0269158 -0.000910748 -0.000139688 2.5034
0.15 0.015 -0.0261154 -0.000818063 -0.00013538 2.43375
0.155 0.015 -0.0253943 -0.000735771 -0.000131508 2.37072
0.16 0.015 -0.0247439 -0.00066248 -0.000128022 2.31361
0.165 0.015 -0.0241567 -0.000597023 -0.000124883 2.26184
0.17 0.015 -0.0236262 -0.000538416 -0.000122052 2.21486
0.175 0.015 -0.0231466 -0.000485823 -0.000119498 2.17222
0.18 0.015 -0.0227129 -0.000438532 -0.000117194 2.1335
0.185 0.015 -0.0223206 -0.000395936 -0.000115113 2.09832
0.19 0.015 -0.0219656 -0.000357511 -0.000113234 2.06634
0.195 0.015 -0.0216443 -0.000322806 -0.000111538 2.03728
0.2 0.015 -0.0213537 -0.000291431 -0.000110006 2.01085
0.205 0.015 -0.0210907 -0.000263047 -0.000108624 1.98682
0.21 0.015 -0.0208528 -0.000237357 -0.000107376 1.96497
0.215 0.015 -0.0206376 -0.000214103 -0.000106251 1.94509
0.22 0.015 -0.020443 -0.000193057 -0.000105235 1.92699
0.225 0.015 -0.020267 -0.00017402 -0.00010432 1.91053
0.23 0.015 -0.0201079 -0.000156813 -0.000103495 1.89553
0.235 0.015 -0.019964 -0.000141281 -0.000102752 1.88186
0.24 0.015 -0.0198339 -0.000127284 -0.000102083 1.86939
0.245 0.015 -0.0197162 -0.000114697 -0.00010148 1.858
0.25 0.015 -0.0196096 -0.00010341 -0.000100936 1.84758
0.255 0.015 -0.0195129 -9.33231e-05 -0.000100446 1.83804
0.26 0.015 -0.0194251 -8.43459e-05 -0.000100004 1.82926
0.265 0.015 -0.0193452 -7.63976e-05 -9.96034e-05 1.82118
0.27 0.015 -0.0192723 -6.94049e-05 -9.92403e-05 1.8137
0.275 0.015 -0.0192054 -6.3301e-05 -9.89099e-05 1.80675
0.28 0.015 -0.0191439 -5.80252e-05 -9.86079e-05 1.80026
0.285 0.015 -0.0190868 -5.35219e-05 -9.83303e-05 1.79417
0.29 0.015 -0.0190336 -4.974e-05 -9.80734e-05 1.7884
0.295 0.015 -0.0189836 -4.66326e-05 -9.78336e-05 1.78291
0.3 0.015 -0.0189362 -4.41561e-05 -9.76078e-05 1.77764
0.305 0.015 -0.0188907 -4.22703e-05 -9.73928e-05 1.77255
0.31 0.015 -0.0188468 -4.09377e-05 -9.71859e-05 1.76757
0.315 0.015 -0.0188037 -4.01232e-05 -9.69843e-05 1.76268
0.32 0.015 -0.0187612 -3.97939e-05 -9.67855e-05 1.75782
0.325 0.015 -0.0187187 -3.99191e-05 -9.65873e-05 1.75296
0.33 0.015 -0.0186759 -4.04694e-05 -9.63873e-05 1.74807
0.335 0.015 -0.0186323 -4.14172e-05 -9.61835e-05 1.7431
0.34 0.015 -0.0185876 -4.27362e-05 -9.59741e-05 1.73804
0.345 0.015 -0.0185414 -4.44016e-05 -9.57571e-05 1.73284
0.35 0.015 -0.0184935 -4.63892e-05 -9.55311e-05 1.72749
0.355 0.015 -0.0184436 -4.86763e-05 -9.52943e-05 1.72196
0.36 0.015 -0.0183913 -5.12408e-05 -9.50454e-05 1.71622
0.365 0.015 -0.0183365 -5.40615e-05 -9.4783e-05 1.71025
0.37 0.015 -0.0182789 -5.71181e-05 -9.45059e-05 1.70403
0.375 0.015 -0.0182182 -6.03909e-05 -9.42129e-05 1.69756
0.38 0.015 -0.0181544 -6.38608e-05 -9.39031e-05 1.6908
0.385 0.015 -0.0180873 -6.75093e-05 -9.35755e-05 1.68374
0.39 0.015 -0.0180166 -7.13187e-05 -9.32292e-05 1.67638
0.395 0.015 -0.0179422 -7.52716e-05 -9.28635e-05 1.6687
0.4 0.015 -0.0178641 -7.93512e-05 -9.24777e-05 1.66069
0.405 0.015 -0.017782 -8.35413e-05 -9.20712e-05 1.65234
0.41 0.015 -0.017696 -8.78261e-05 -9.16435e-05 1.64364
0.415 0.015 -0.0176059 -9.21904e-05 -9.11941e-05 1.63459
0.42 0.015 -0.0175117 -9.66193e-05 -9.07228e-05 1.62518
0.425 0.015 -0.0174133 -0.000101099 -9.02292e-05 1.61541
0.43 0.015 -0.0173107 -0.000105614 -8.97131e-05 1.60527
0.435 0.015 -0.0172038 -0.000110153 -8.91743e-05 1.59477
0.44 0.015 -0.0170927 -0.000114703 -8.86129e-05 1.5839
0.445 0.015 -0.0169773 -0.00011925 -8.80286e-05 1.57267
0.45 0.015 -0.0168577 -0.000123783 -8.74216e-05 1.56107
0.455 0.015 -0.0167339 -0.000128291 -8.67921e-05 1.5491
0.46 0.015 -0.0166058 -0.000132763 -8.614e-05 1.53678
0.465 0.015 -0.0164736 -0.000137188 -8.54657e-05 1.5241
0.47 0.015 -0.0163373 -0.000141557 -8.47694e-05 1.51106
0.475 0.015 -0.0161969 -0.000145859 -8.40515e-05 1.49769
0.48 0.015 -0.0160526 -0.000150088 -8.33121e-05 1.48397
0.485 0.015 -0.0159044 -0.000154233 -8.25519e-05 1.46992
0.49 0.015 -0.0157523 -0.000158287 -8.17711e-05 1.45554
0.495 0.015 -0.0155965 -0.000162244 -8.09703e-05 1.44085
0.5 0.015 -0.0154371 -0.000166096 -8.01499e-05 1.42585
0.505 0.015 -0.0152741 -0.000169837 -7.93106e-05 1.41055
0.51 0.015 -0.0151077 -0.000173461 -7.84528e-05 1.39496
0.515 0.015 -0.0149381 -0.000176963 -7.75772e-05 1.37909
0.52 0.015 -0.0147652 -0.00018034 -7.66844e-05 1.36294
0.525 0.015 -0.0145892 -0.000183585 -7.5775e-05 1.34654
0.53 0.015 -0.0144103 -0.000186696 -7.48497e-05 1.32989
0.535 0.015 -0.0142286 -0.00018967 -7.39092e-05 1.313
0.54 0.015 -0.0140442 -0.000192504 -7.29542e-05 1.29589
0.545 0.015 -0.0138572 -0.000195195 -7.19853e-05 1.27856
0.55 0.015 -0.0136678 -0.000197742 -7.10034e-05 1.26103
0.555 0.015 -0.0134761 -0.000200144 -7.00091e-05 1.2433
0.56 0.015 -0.0132823 -0.0002024 -6.90031e-05 1.2254
0.565 0.015 -0.0130864 -0.000204509 -6.79861e-05 1.20733
0.57 0.015 -0.0128887 -0.000206471 -6.6959e-05 1.1891
0.575 0.015 -0.0126892 -0.000208286 -6.59225e-05 1.17072
0.58 0.015 -0.0124882 -0.000209955 -6.48772e-05 1.15222
0.585 0.015 -0.0122856 -0.00021148 -6.3824e-05 1.13359
0.59 0.015 -0.0120818 -0.00021286 -6.27634e-05 1.11485
0.595 0.015 -0.0118767 -0.000214099 -6.16963e-05 1.09602
0.6 0.015 -0.0116706 -0.000215197 -6.06234e-05 1.07709
0.605 0.015 -0.0114635 -0.000216156 -5.95453e-05 1.0581
0.61 0.015 -0.0112556 -0.00021698 -5.84628e-05 1.03903
0.615 0.015 -0.011047 -0.00021767 -5.73764e-05 1.01991
0.62 0.015 -0.0108379 -0.00021823 -5.62869e-05 1.00075
0.625 0.015 -0.0106283 -0.000218661 -5.5195e-05 0.981559
0.63 0.015 -0.0104185 -0.000218968 -5.41011e-05 0.962342
0.635 0.015 -0.0102084 -0.000219153 -5.30061e-05 0.943111
0.64 0.015 -0.00999817 -0.000219219 -5.19104e-05 0.923876
0.645 0.015 -0.00978799 -0.00021917 -5.08147e-05 0.904647
0.65 0.015 -0.00957793 -0.000219009 -4.97194e-05 0.885432
0.655 0.015 -0.0093681 -0.00021874 -4.86253e-05 0.866241
0.66 0.015 -0.00915859 -0.000218365 -4.75327e-05 0.847082
0.665 0.015 -0.00894949 -0.000217888 -4.64423e-05 0.827964
0.67 0.015 -0.00874091 -0.000217312 -4.53545e-05 0.808894
0.675 0.015 -0.00853294 -0.000216642 -4.42698e-05 0.78988
0.68 0.015 -0.00832565 -0.000215879 -4.31887e-05 0.77093
0.685 0.015 -0.00811914 -0.000215027 -4.21116e-05 0.752051
0.69 0.015 -0.00791349 -0.000214089 -4.1039e-05 0.733251
0.695 0.015 -0.00770878 -0.000213068 -3.99713e-05 0.714535
0.7 0.015 -0.00750507 -0.000211967 -3.89088e-05 0.695912
0.705 0.015 -0.00730246 -0.000210789 -3.78521e-05 0.677387
0.71 0.015 -0.007101 -0.000209535 -3.68014e-05 0.658966
0.715 0.015 -0.00690078 -0.000208209 -3.57572e-05 0.640656
0.72 0.015 -0.00670184 -0.000206812 -3.47198e-05 0.622463
0.725 0.015 -0.00650428 -0.000205346 -3.36895e-05 0.604392
0.73 0.015 -0.00630813 -0.000203813 -3.26667e-05 0.58645
0.735 0.015 -0.00611348 -0.000202215 -3.16518e-05 0.568641
0.74 0.015 -0.00592037 -0.000200552 -3.06449e-05 0.550972
0.745 0.015 -0.00572887 -0.000198827 -2.96466e-05 0.533447
0.75 0.015 -0.00553905 -0.000197039 -2.8657e-05 0.516072
0.755 0.015 -0.00535095 -0.000195189 -2.76765e-05 0.498853
0.76 0.015 -0.00516463 -0.000193278 -2.67054e-05 0.481794
0.765 0.015 -0.00498017 -0.000191306 -2.5744e-05 0.464901
0.77 0.015 -0.0047976 -0.000189273 -2.47926e-05 0.44818
0.775 0.015 -0.004617 -0.000187178 -2.38515e-05 0.431635
0.78 0.015 -0.00443842 -0.00018502 -2.2921e-05 0.415273
0.785 0.015 -0.00426193 -0.000182798 -2.20015e-05 0.399098
0.79 0.015 -0.00408757 -0.000180512 -2.10932e-05 0.383117
0.795 0.015 -0.00391543 -0.00017816 -2.01966e-05 0.367335
0.8 0.015 -0.00374555 -0.000175739 -1.93118e-05 0.351759