Title=" Lid Driven Flow"
VARIABLES="X","Y","U","V","psi","xi"
ZONE T= "BOX", I= 201, J=201, F=POINT
0 0 0 0 0.00117092 0
0.005 0 0 0 0 0
0.01 0 0 0 0 0
0.015 0 0 0 0 161.89
0.02 0 0 0 0 176.13
0.025 0 0 0 0 155.634
0.03 0 0 0 0 133.275
0.035 0 0 0 0 115.789
0.04 0 0 0 0 102.965
0.045 0 0 0 0 93.4552
0.05 0 0 0 0 86.1457
0.055 0 0 0 0 80.3025
0.06 0 0 0 0 75.4667
0.065 0 0 0 0 71.3498
0.07 0 0 0 0 67.765
0.075 0 0 0 0 64.587
0.08 0 0 0 0 61.7288
0.085 0 0 0 0 59.1285
0.09 0 0 0 0 56.7407
0.095 0 0 0 0 54.5314
0.1 0 0 0 0 52.4751
0.105 0 0 0 0 50.5517
0.11 0 0 0 0 48.7457
0.115 0 0 0 0 47.0445
0.12 0 0 0 0 45.4379
0.125 0 0 0 0 43.9174
0.13 0 0 0 0 42.476
0.135 0 0 0 0 41.1074
0.14 0 0 0 0 39.8064
0.145 0 0 0 0 38.5682
0.15 0 0 0 0 37.3887
0.155 0 0 0 0 36.2641
0.16 0 0 0 0 35.1907
0.165 0 0 0 0 34.1654
0.17 0 0 0 0 33.1852
0.175 0 0 0 0 32.2473
0.18 0 0 0 0 31.349
0.185 0 0 0 0 30.4878
0.19 0 0 0 0 29.6614
0.195 0 0 0 0 28.8675
0.2 0 0 0 0 28.1041
0.205 0 0 0 0 27.3692
0.21 0 0 0 0 26.6608
0.215 0 0 0 0 25.9771
0.22 0 0 0 0 25.3166
0.225 0 0 0 0 24.6774
0.23 0 0 0 0 24.0583
0.235 0 0 0 0 23.4576
0.24 0 0 0 0 22.874
0.245 0 0 0 0 22.3064
0.25 0 0 0 0 21.7534
0.255 0 0 0 0 21.2139
0.26 0 0 0 0 20.687
0.265 0 0 0 0 20.1716
0.27 0 0 0 0 19.6668
0.275 0 0 0 0 19.1717
0.28 0 0 0 0 18.6857
0.285 0 0 0 0 18.208
0.29 0 0 0 0 17.7378
0.295 0 0 0 0 17.2748
0.3 0 0 0 0 16.8182
0.305 0 0 0 0 16.3676
0.31 0 0 0 0 15.9226
0.315 0 0 0 0 15.4828
0.32 0 0 0 0 15.0479
0.325 0 0 0 0 14.6177
0.33 0 0 0 0 14.1918
0.335 0 0 0 0 13.7701
0.34 0 0 0 0 13.3525
0.345 0 0 0 0 12.9388
0.35 0 0 0 0 12.529
0.355 0 0 0 0 12.1232
0.36 0 0 0 0 11.7212
0.365 0 0 0 0 11.3231
0.37 0 0 0 0 10.9291
0.375 0 0 0 0 10.5392
0.38 0 0 0 0 10.1536
0.385 0 0 0 0 9.77241
0.39 0 0 0 0 9.39579
0.395 0 0 0 0 9.02396
0.4 0 0 0 0 8.65713
0.405 0 0 0 0 8.29553
0.41 0 0 0 0 7.9394
0.415 0 0 0 0 7.58897
0.42 0 0 0 0 7.24449
0.425 0 0 0 0 6.90623
0.43 0 0 0 0 6.57443
0.435 0 0 0 0 6.24933
0.44 0 0 0 0 5.93119
0.445 0 0 0 0 5.62024
0.45 0 0 0 0 5.3167
0.455 0 0 0 0 5.0208
0.46 0 0 0 0 4.73273
0.465 0 0 0 0 4.45267
0.47 0 0 0 0 4.18079
0.475 0 0 0 0 3.91725
0.48 0 0 0 0 3.66215
0.485 0 0 0 0 3.41562
0.49 0 0 0 0 3.17774
0.495 0 0 0 0 2.94856
0.5 0 0 0 0 2.72812
0.505 0 0 0 0 2.51643
0.51 0 0 0 0 2.31349
0.515 0 0 0 0 2.11925
0.52 0 0 0 0 1.93367
0.525 0 0 0 0 1.75667
0.53 0 0 0 0 1.58814
0.535 0 0 0 0 1.42797
0.54 0 0 0 0 1.27602
0.545 0 0 0 0 1.13214
0.55 0 0 0 0 0.99614
0.555 0 0 0 0 0.867846
0.56 0 0 0 0 0.747055
0.565 0 0 0 0 0.633554
0.57 0 0 0 0 0.527119
0.575 0 0 0 0 0.42752
0.58 0 0 0 0 0.334517
0.585 0 0 0 0 0.247865
0.59 0 0 0 0 0.167315
0.595 0 0 0 0 0.0926145
0.6 0 0 0 0 0.0235105
0.605 0 0 0 0 -0.0402518
0.61 0 0 0 0 -0.0989264
0.615 0 0 0 0 -0.152765
0.62 0 0 0 0 -0.202018
0.625 0 0 0 0 -0.246931
0.63 0 0 0 0 -0.287746
0.635 0 0 0 0 -0.3247
0.64 0 0 0 0 -0.358025
0.645 0 0 0 0 -0.387945
0.65 0 0 0 0 -0.414681
0.655 0 0 0 0 -0.438442
0.66 0 0 0 0 -0.459434
0.665 0 0 0 0 -0.477853
0.67 0 0 0 0 -0.493885
0.675 0 0 0 0 -0.50771
0.68 0 0 0 0 -0.519498
0.685 0 0 0 0 -0.529409
0.69 0 0 0 0 -0.537596
0.695 0 0 0 0 -0.5442
0.7 0 0 0 0 -0.549352
0.705 0 0 0 0 -0.553177
0.71 0 0 0 0 -0.555786
0.715 0 0 0 0 -0.557284
0.72 0 0 0 0 -0.557764
0.725 0 0 0 0 -0.557313
0.73 0 0 0 0 -0.556006
0.735 0 0 0 0 -0.553912
0.74 0 0 0 0 -0.551091
0.745 0 0 0 0 -0.547597
0.75 0 0 0 0 -0.543475
0.755 0 0 0 0 -0.538765
0.76 0 0 0 0 -0.533501
0.765 0 0 0 0 -0.527712
0.77 0 0 0 0 -0.521422
0.775 0 0 0 0 -0.514651
0.78 0 0 0 0 -0.507415
0.785 0 0 0 0 -0.499729
0.79 0 0 0 0 -0.491603
0.795 0 0 0 0 -0.483046
0.8 0 0 0 0 -0.474067
0.805 0 0 0 0 -0.464672
0.81 0 0 0 0 -0.454867
0.815 0 0 0 0 -0.444658
0.82 0 0 0 0 -0.434052
0.825 0 0 0 0 -0.423053
0.83 0 0 0 0 -0.411669
0.835 0 0 0 0 -0.399909
0.84 0 0 0 0 -0.387779
0.845 0 0 0 0 -0.375292
0.85 0 0 0 0 -0.362457
0.855 0 0 0 0 -0.349289
0.86 0 0 0 0 -0.335802
0.865 0 0 0 0 -0.322013
0.87 0 0 0 0 -0.307941
0.875 0 0 0 0 -0.293608
0.88 0 0 0 0 -0.279038
0.885 0 0 0 0 -0.264258
0.89 0 0 0 0 -0.249296
0.895 0 0 0 0 -0.234185
0.9 0 0 0 0 -0.218963
0.905 0 0 0 0 -0.203668
0.91 0 0 0 0 -0.188345
0.915 0 0 0 0 -0.173043
0.92 0 0 0 0 -0.157815
0.925 0 0 0 0 -0.142721
0.93 0 0 0 0 -0.127827
0.935 0 0 0 0 -0.113205
0.94 0 0 0 0 -0.0989348
0.945 0 0 0 0 -0.0851057
0.95 0 0 0 0 -0.0718162
0.955 0 0 0 0 -0.0591751
0.96 0 0 0 0 -0.0473033
0.965 0 0 0 0 -0.0363344
0.97 0 0 0 0 -0.0264152
0.975 0 0 0 0 -0.017706
0.98 0 0 0 0 -0.0103776
0.985 0 0 0 0 -0.00460522
0.99 0 0 0 0 -0.000550675
0.995 0 0 0 0 0.00167805
1 0 0 0 0 0.00212039
0 0.005 0 0 0 0
0.005 0.005 0 0 0 0
0.01 0.005 0 0 0 73.7256
0.015 0.005 0 0 0 62.0017
0.02 0.005 0 0 0 45.566
0.025 0.005 0 0 0 33.748
0.03 0.005 0 0 0 25.8617
0.035 0.005 0 0 0 20.5038
0.04 0.005 0 0 0 16.717
0.045 0.005 0 0 0 13.9319
0.05 0.005 0 0 0 11.8135
0.055 0.005 0 0 0 10.1583
0.06 0.005 0 0 0 8.83775
0.065 0.005 0 0 0 7.76667
0.07 0.005 0 0 0 6.88656
0.075 0.005 0 0 0 6.15574
0.08 0.005 0 0 0 5.54368
0.085 0.005 0 0 0 5.02743
0.09 0.005 0 0 0 4.58945
0.095 0.005 0 0 0 4.21605
0.1 0.005 0 0 0 3.89643
0.105 0.005 0 0 0 3.62196
0.11 0.005 0 0 0 3.38565
0.115 0.005 0 0 0 3.18182
0.12 0.005 0 0 0 3.0058
0.125 0.005 0 0 0 2.85372
0.13 0.005 0 0 0 2.72235
0.135 0.005 0 0 0 2.60898
0.14 0.005 0 0 0 2.51135
0.145 0.005 0 0 0 2.42752
0.15 0.005 0 0 0 2.35585
0.155 0.005 0 0 0 2.29492
0.16 0.005 0 0 0 2.24353
0.165 0.005 0 0 0 2.20063
0.17 0.005 0 0 0 2.16532
0.175 0.005 0 0 0 2.13681
0.18 0.005 0 0 0 2.11441
0.185 0.005 0 0 0 2.0975
0.19 0.005 0 0 0 2.08557
0.195 0.005 0 0 0 2.07812
0.2 0.005 0 0 0 2.07476
0.205 0.005 0 0 0 2.07509
0.21 0.005 0 0 0 2.07878
0.215 0.005 0 0 0 2.08552
0.22 0.005 0 0 0 2.09505
0.225 0.005 0 0 0 2.10711
0.23 0.005 0 0 0 2.12147
0.235 0.005 0 0 0 2.13791
0.24 0.005 0 0 0 2.15625
0.245 0.005 0 0 0 2.17631
0.25 0.005 0 0 0 2.1979
0.255 0.005 0 0 0 2.22088
0.26 0.005 0 0 0 2.24509
0.265 0.005 0 0 0 2.27039
0.27 0.005 0 0 0 2.29664
0.275 0.005 0 0 0 2.32372
0.28 0.005 0 0 0 2.3515
0.285 0.005 0 0 0 2.37985
0.29 0.005 0 0 0 2.40867
0.295 0.005 0 0 0 2.43783
0.3 0.005 0 0 0 2.46723
0.305 0.005 0 0 0 2.49676
0.31 0.005 0 0 0 2.52631
0.315 0.005 0 0 0 2.55579
0.32 0.005 0 0 0 2.5851
0.325 0.005 0 0 0 2.61412
0.33 0.005 0 0 0 2.64278
0.335 0.005 0 0 0 2.67097
0.34 0.005 0 0 0 2.69861
0.345 0.005 0 0 0 2.7256
0.35 0.005 0 0 0 2.75186
0.355 0.005 0 0 0 2.7773
0.36 0.005 0 0 0 2.80184
0.365 0.005 0 0 0 2.82541
0.37 0.005 0 0 0 2.84791
0.375 0.005 0 0 0 2.86928
0.38 0.005 0 0 0 2.88944
0.385 0.005 0 0 0 2.90833
0.39 0.005 0 0 0 2.92588
0.395 0.005 0 0 0 2.94202
0.4 0.005 0 0 0 2.9567
0.405 0.005 0 0 0 2.96987
0.41 0.005 0 0 0 2.98146
0.415 0.005 0 0 0 2.99143
0.42 0.005 0 0 0 2.99974
0.425 0.005 0 0 0 3.00635
0.43 0.005 0 0 0 3.01122
0.435 0.005 0 0 0 3.01432
0.44 0.005 0 0 0 3.01561
0.445 0.005 0 0 0 3.01509
0.45 0.005 0 0 0 3.01273
0.455 0.005 0 0 0 3.00851
0.46 0.005 0 0 0 3.00242
0.465 0.005 0 0 0 2.99447
0.47 0.005 0 0 0 2.98465
0.475 0.005 0 0 0 2.97297
0.48 0.005 0 0 0 2.95943
0.485 0.005 0 0 0 2.94404
0.49 0.005 0 0 0 2.92684
0.495 0.005 0 0 0 2.90783
0.5 0.005 0 0 0 2.88704
0.505 0.005 0 0 0 2.8645
0.51 0.005 0 0 0 2.84026
0.515 0.005 0 0 0 2.81434
0.52 0.005 0 0 0 2.78679
0.525 0.005 0 0 0 2.75765
0.53 0.005 0 0 0 2.72697
0.535 0.005 0 0 0 2.69481
0.54 0.005 0 0 0 2.66121
0.545 0.005 0 0 0 2.62624
0.55 0.005 0 0 0 2.58995
0.555 0.005 0 0 0 2.55241
0.56 0.005 0 0 0 2.51368
0.565 0.005 0 0 0 2.47383
0.57 0.005 0 0 0 2.43292
0.575 0.005 0 0 0 2.39102
0.58 0.005 0 0 0 2.3482
0.585 0.005 0 0 0 2.30453
0.59 0.005 0 0 0 2.26009
0.595 0.005 0 0 0 2.21494
0.6 0.005 0 0 0 2.16915
0.605 0.005 0 0 0 2.1228
0.61 0.005 0 0 0 2.07596
0.615 0.005 0 0 0 2.02869
0.62 0.005 0 0 0 1.98106
0.625 0.005 0 0 0 1.93315
0.63 0.005 0 0 0 1.88502
0.635 0.005 0 0 0 1.83674
0.64 0.005 0 0 0 1.78837
0.645 0.005 0 0 0 1.73997
0.65 0.005 0 0 0 1.69161
0.655 0.005 0 0 0 1.64334
0.66 0.005 0 0 0 1.59522
0.665 0.005 0 0 0 1.54731
0.67 0.005 0 0 0 1.49966
0.675 0.005 0 0 0 1.45232
0.68 0.005 0 0 0 1.40533
0.685 0.005 0 0 0 1.35875
0.69 0.005 0 0 0 1.31262
0.695 0.005 0 0 0 1.26698
0.7 0.005 0 0 0 1.22187
0.705 0.005 0 0 0 1.17733
0.71 0.005 0 0 0 1.13338
0.715 0.005 0 0 0 1.09007
0.72 0.005 0 0 0 1.04743
0.725 0.005 0 0 0 1.00547
0.73 0.005 0 0 0 0.964236
0.735 0.005 0 0 0 0.92374
0.74 0.005 0 0 0 0.884006
0.745 0.005 0 0 0 0.845054
0.75 0.005 0 0 0 0.806903
0.755 0.005 0 0 0 0.769567
0.76 0.005 0 0 0 0.733062
0.765 0.005 0 0 0 0.6974
0.77 0.005 0 0 0 0.662592
0.775 0.005 0 0 0 0.628648
0.78 0.005 0 0 0 0.595576
0.785 0.005 0 0 0 0.563384
0.79 0.005 0 0 0 0.532076
0.795 0.005 0 0 0 0.501659
0.8 0.005 0 0 0 0.472134
0.805 0.005 0 0 0 0.443506
0.81 0.005 0 0 0 0.415776
0.815 0.005 0 0 0 0.388945
0.82 0.005 0 0 0 0.363013
0.825 0.005 0 0 0 0.33798
0.83 0.005 0 0 0 0.313846
0.835 0.005 0 0 0 0.290608
0.84 0.005 0 0 0 0.268266
0.845 0.005 0 0 0 0.246817
0.85 0.005 0 0 0 0.226259
0.855 0.005 0 0 0 0.206588
0.86 0.005 0 0 0 0.187802
0.865 0.005 0 0 0 0.169899
0.87 0.005 0 0 0 0.152874
0.875 0.005 0 0 0 0.136724
0.88 0.005 0 0 0 0.121447
0.885 0.005 0 0 0 0.10704
0.89 0.005 0 0 0 0.093498
0.895 0.005 0 0 0 0.0808194
0.9 0.005 0 0 0 0.0690011
0.905 0.005 0 0 0 0.0580402
0.91 0.005 0 0 0 0.0479341
0.915 0.005 0 0 0 0.0386802
0.92 0.005 0 0 0 0.0302759
0.925 0.005 0 0 0 0.0227186
0.93 0.005 0 0 0 0.0160055
0.935 0.005 0 0 0 0.0101332
0.94 0.005 0 0 0 0.00509742
0.945 0.005 0 0 0 0.000892472
0.95 0.005 0 0 0 -0.00248955
0.955 0.005 0 0 0 -0.00506001
0.96 0.005 0 0 0 -0.0068355
0.965 0.005 0 0 0 -0.00784048
0.97 0.005 0 0 0 -0.00811132
0.975 0.005 0 0 0 -0.00770246
0.98 0.005 0 0 0 -0.0066962
0.985 0.005 0 0 0 -0.00521798
0.99 0.005 0 0 0 -0.00346026
0.995 0.005 0 0 0 -0.00171571
1 0.005 0 0 0 -0.000404589
0 0.01 0 0 -0.000404589 0
0.005 0.01 0 0 0 -326.274
0.01 0.01 -0.179972 0.0775021 -0.000921571 -44.4616
0.015 0.01 -0.184557 -0.0351996 -0.000775021 9.46525
0.02 0.01 -0.155823 -0.0353172 -0.000569574 19.0723
0.025 0.01 -0.12688 -0.0246303 -0.000421849 18.9701
0.03 0.01 -0.10359 -0.0165552 -0.000323272 16.8384
0.035 0.01 -0.085694 -0.011431 -0.000256297 14.5594
0.04 0.01 -0.0719473 -0.00821483 -0.000208962 12.5629
0.045 0.01 -0.0612435 -0.00612933 -0.000174149 10.8988
0.05 0.01 -0.0527698 -0.004717 -0.000147669 9.52604
0.055 0.01 -0.0459551 -0.00371968 -0.000126979 8.391
0.06 0.01 -0.0403989 -0.00298957 -0.000110472 7.44658
0.065 0.01 -0.035816 -0.00243898 -9.70833e-05 6.65521
0.07 0.01 -0.0319989 -0.00201365 -8.60819e-05 5.98766
0.075 0.01 -0.0287938 -0.00167859 -7.69466e-05 5.42118
0.08 0.01 -0.0260843 -0.00141037 -6.92958e-05 4.93798
0.085 0.01 -0.0237807 -0.00119277 -6.28427e-05 4.52398
0.09 0.01 -0.0218127 -0.00101421 -5.73679e-05 4.16794
0.095 0.01 -0.0201248 -0.000866254 -5.27004e-05 3.86078
0.1 0.01 -0.0186724 -0.000742597 -4.87052e-05 3.5951
0.105 0.01 -0.0174193 -0.000638457 -4.52743e-05 3.36484
0.11 0.01 -0.016336 -0.000550148 -4.23204e-05 3.16499
0.115 0.01 -0.0153982 -0.000474791 -3.97726e-05 2.99136
0.12 0.01 -0.0145857 -0.000410113 -3.75723e-05 2.84046
0.125 0.01 -0.0138818 -0.000354301 -3.56713e-05 2.70935
0.13 0.01 -0.0132722 -0.000305899 -3.40291e-05 2.59553
0.135 0.01 -0.012745 -0.000263723 -3.26121e-05 2.49689
0.14 0.01 -0.0122901 -0.000226809 -3.13917e-05 2.41161
0.145 0.01 -0.011899 -0.000194365 -3.03439e-05 2.33815
0.15 0.01 -0.0115641 -0.000165736 -2.94479e-05 2.27516
0.155 0.01 -0.0112791 -0.00014038 -2.86863e-05 2.2215
0.16 0.01 -0.0110386 -0.000117843 -2.8044e-05 2.17615
0.165 0.01 -0.0108377 -9.77439e-05 -2.75078e-05 2.13825
0.17 0.01 -0.0106723 -7.97641e-05 -2.70664e-05 2.10702
0.175 0.01 -0.0105389 -6.36332e-05 -2.671e-05 2.0818
0.18 0.01 -0.0104341 -4.91221e-05 -2.64299e-05 2.06199
0.185 0.01 -0.0103552 -3.60362e-05 -2.62187e-05 2.04707
0.19 0.01 -0.0102997 -2.42096e-05 -2.60695e-05 2.03657
0.195 0.01 -0.0102654 -1.35004e-05 -2.59765e-05 2.03008
0.2 0.01 -0.0102503 -3.78691e-06 -2.59344e-05 2.02722
0.205 0.01 -0.0102527 5.03504e-06 -2.59385e-05 2.02766
0.21 0.01 -0.0102709 1.30552e-05 -2.59846e-05 2.0311
0.215 0.01 -0.0103035 2.03507e-05 -2.6069e-05 2.03727
0.22 0.01 -0.0103492 2.69882e-05 -2.61881e-05 2.04591
0.225 0.01 -0.0104069 3.3025e-05 -2.63388e-05 2.0568
0.23 0.01 -0.0104754 3.85108e-05 -2.65183e-05 2.06973
0.235 0.01 -0.0105536 4.34884e-05 -2.67239e-05 2.0845
0.24 0.01 -0.0106408 4.79948e-05 -2.69531e-05 2.10093
0.245 0.01 -0.010736 5.20622e-05 -2.72038e-05 2.11886
0.25 0.01 -0.0108383 5.57181e-05 -2.74737e-05 2.13812
0.255 0.01 -0.0109471 5.89866e-05 -2.7761e-05 2.15858
0.26 0.01 -0.0110616 6.18885e-05 -2.80636e-05 2.18009
0.265 0.01 -0.0111811 6.44419e-05 -2.83799e-05 2.20251
0.27 0.01 -0.0113049 6.66624e-05 -2.87081e-05 2.22573
0.275 0.01 -0.0114325 6.85638e-05 -2.90466e-05 2.24961
0.28 0.01 -0.0115632 7.01579e-05 -2.93938e-05 2.27406
0.285 0.01 -0.0116964 7.14552e-05 -2.97482e-05 2.29894
0.29 0.01 -0.0118316 7.24652e-05 -3.01084e-05 2.32416
0.295 0.01 -0.0119683 7.31959e-05 -3.04729e-05 2.3496
0.3 0.01 -0.0121059 7.36548e-05 -3.08404e-05 2.37518
0.305 0.01 -0.0122438 7.38487e-05 -3.12096e-05 2.40079
0.31 0.01 -0.0123817 7.37837e-05 -3.1579e-05 2.42633
0.315 0.01 -0.012519 7.34657e-05 -3.19475e-05 2.45171
0.32 0.01 -0.0126552 7.29003e-05 -3.23138e-05 2.47685
0.325 0.01 -0.0127899 7.20927e-05 -3.26767e-05 2.50165
0.33 0.01 -0.0129226 7.10483e-05 -3.30349e-05 2.52603
0.335 0.01 -0.0130529 6.97721e-05 -3.33873e-05 2.5499
0.34 0.01 -0.0131803 6.82696e-05 -3.37328e-05 2.57319
0.345 0.01 -0.0133045 6.6546e-05 -3.40702e-05 2.59581
0.35 0.01 -0.0134249 6.4607e-05 -3.43985e-05 2.61769
0.355 0.01 -0.0135413 6.24583e-05 -3.47165e-05 2.63876
0.36 0.01 -0.0136532 6.01059e-05 -3.50233e-05 2.65894
0.365 0.01 -0.0137603 5.75561e-05 -3.53178e-05 2.67816
0.37 0.01 -0.0138621 5.48155e-05 -3.55991e-05 2.69636
0.375 0.01 -0.0139584 5.18911e-05 -3.58662e-05 2.71348
0.38 0.01 -0.0140489 4.879e-05 -3.61183e-05 2.72945
0.385 0.01 -0.0141331 4.55201e-05 -3.63544e-05 2.74422
0.39 0.01 -0.0142108 4.20891e-05 -3.65737e-05 2.75773
0.395 0.01 -0.0142818 3.85055e-05 -3.67756e-05 2.76994
0.4 0.01 -0.0143456 3.47781e-05 -3.69591e-05 2.78078
0.405 0.01 -0.0144022 3.09158e-05 -3.71236e-05 2.79022
0.41 0.01 -0.0144513 2.6928e-05 -3.72686e-05 2.79823
0.415 0.01 -0.0144926 2.28246e-05 -3.73932e-05 2.80475
0.42 0.01 -0.0145259 1.86154e-05 -3.74971e-05 2.80975
0.425 0.01 -0.0145511 1.43109e-05 -3.75797e-05 2.81322
0.43 0.01 -0.0145681 9.92151e-06 -3.76406e-05 2.81511
0.435 0.01 -0.0145766 5.45813e-06 -3.76793e-05 2.8154
0.44 0.01 -0.0145766 9.31702e-07 -3.76955e-05 2.81409
0.445 0.01 -0.0145679 -3.64661e-06 -3.7689e-05 2.81114
0.45 0.01 -0.0145506 -8.26552e-06 -3.76594e-05 2.80656
0.455 0.01 -0.0145245 -1.29137e-05 -3.76067e-05 2.80033
0.46 0.01 -0.0144896 -1.75796e-05 -3.75307e-05 2.79245
0.465 0.01 -0.0144459 -2.22519e-05 -3.74313e-05 2.78292
0.47 0.01 -0.0143934 -2.69192e-05 -3.73085e-05 2.77174
0.475 0.01 -0.0143321 -3.157e-05 -3.71625e-05 2.75893
0.48 0.01 -0.0142622 -3.61932e-05 -3.69932e-05 2.7445
0.485 0.01 -0.0141836 -4.07776e-05 -3.68009e-05 2.72846
0.49 0.01 -0.0140965 -4.53125e-05 -3.65858e-05 2.71083
0.495 0.01 -0.0140009 -4.9787e-05 -3.63482e-05 2.69163
0.5 0.01 -0.0138971 -5.41908e-05 -3.60884e-05 2.6709
0.505 0.01 -0.0137851 -5.85139e-05 -3.58067e-05 2.64865
0.51 0.01 -0.0136651 -6.27464e-05 -3.55036e-05 2.62493
0.515 0.01 -0.0135374 -6.68791e-05 -3.51796e-05 2.59977
0.52 0.01 -0.013402 -7.0903e-05 -3.48352e-05 2.57321
0.525 0.01 -0.0132593 -7.48096e-05 -3.4471e-05 2.54529
0.53 0.01 -0.0131095 -7.85909e-05 -3.40875e-05 2.51606
0.535 0.01 -0.0129527 -8.22394e-05 -3.36854e-05 2.48556
0.54 0.01 -0.0127894 -8.57482e-05 -3.32655e-05 2.45384
0.545 0.01 -0.0126196 -8.91108e-05 -3.28283e-05 2.42095
0.55 0.01 -0.0124438 -9.23214e-05 -3.23747e-05 2.38694
0.555 0.01 -0.0122623 -9.53746e-05 -3.19055e-05 2.35188
0.56 0.01 -0.0120752 -9.82659e-05 -3.14214e-05 2.31581
0.565 0.01 -0.0118829 -0.000100991 -3.09232e-05 2.2788
0.57 0.01 -0.0116858 -0.000103547 -3.04118e-05 2.2409
0.575 0.01 -0.0114841 -0.00010593 -2.9888e-05 2.20217
0.58 0.01 -0.0112783 -0.000108139 -2.93528e-05 2.16267
0.585 0.01 -0.0110685 -0.000110171 -2.8807e-05 2.12246
0.59 0.01 -0.0108552 -0.000112026 -2.82514e-05 2.08161
0.595 0.01 -0.0106386 -0.000113703 -2.7687e-05 2.04018
0.6 0.01 -0.0104192 -0.000115203 -2.71147e-05 1.99822
0.605 0.01 -0.0101971 -0.000116525 -2.65353e-05 1.9558
0.61 0.01 -0.00997288 -0.000117672 -2.59497e-05 1.91297
0.615 0.01 -0.0097467 -0.000118644 -2.53589e-05 1.8698
0.62 0.01 -0.00951893 -0.000119445 -2.47636e-05 1.82635
0.625 0.01 -0.00928987 -0.000120076 -2.41647e-05 1.78268
0.63 0.01 -0.00905986 -0.00012054 -2.3563e-05 1.73883
0.635 0.01 -0.00882918 -0.000120842 -2.29595e-05 1.69487
0.64 0.01 -0.00859813 -0.000120985 -2.23549e-05 1.65086
0.645 0.01 -0.00836702 -0.000120974 -2.17499e-05 1.60684
0.65 0.01 -0.00813611 -0.000120812 -2.11453e-05 1.56287
0.655 0.01 -0.00790569 -0.000120505 -2.0542e-05 1.519
0.66 0.01 -0.00767602 -0.000120057 -1.99405e-05 1.47528
0.665 0.01 -0.00744735 -0.000119475 -1.93416e-05 1.43175
0.67 0.01 -0.00721993 -0.000118762 -1.87459e-05 1.38846
0.675 0.01 -0.00699399 -0.000117926 -1.81541e-05 1.34545
0.68 0.01 -0.00676977 -0.000116971 -1.75668e-05 1.30277
0.685 0.01 -0.00654746 -0.000115903 -1.69846e-05 1.26045
0.69 0.01 -0.00632729 -0.000114728 -1.64079e-05 1.21853
0.695 0.01 -0.00610944 -0.000113453 -1.58374e-05 1.17705
0.7 0.01 -0.00589409 -0.000112082 -1.52735e-05 1.13604
0.705 0.01 -0.00568142 -0.000110622 -1.47167e-05 1.09554
0.71 0.01 -0.00547159 -0.000109078 -1.41674e-05 1.05556
0.715 0.01 -0.00526474 -0.000107456 -1.3626e-05 1.01615
0.72 0.01 -0.00506102 -0.000105761 -1.3093e-05 0.977322
0.725 0.01 -0.00486056 -0.000104 -1.25685e-05 0.939107
0.73 0.01 -0.00466349 -0.000102176 -1.2053e-05 0.901525
0.735 0.01 -0.0044699 -0.000100296 -1.15468e-05 0.864598
0.74 0.01 -0.00427991 -9.83646e-05 -1.10501e-05 0.828345
0.745 0.01 -0.0040936 -9.63861e-05 -1.05632e-05 0.792783
0.75 0.01 -0.00391106 -9.43653e-05 -1.00863e-05 0.757928
0.755 0.01 -0.00373237 -9.23066e-05 -9.61964e-06 0.723795
0.76 0.01 -0.0035576 -9.02141e-05 -9.16332e-06 0.690397
0.765 0.01 -0.0033868 -8.80919e-05 -8.71754e-06 0.657745
0.77 0.01 -0.00322003 -8.59438e-05 -8.28244e-06 0.625851
0.775 0.01 -0.00305734 -8.37732e-05 -7.85813e-06 0.594722
0.78 0.01 -0.00289876 -8.15835e-05 -7.44473e-06 0.564368
0.785 0.01 -0.00274434 -7.93778e-05 -7.04232e-06 0.534795
0.79 0.01 -0.0025941 -7.7159e-05 -6.65098e-06 0.506009
0.795 0.01 -0.00244807 -7.49297e-05 -6.27075e-06 0.478014
0.8 0.01 -0.00230626 -7.26925e-05 -5.90169e-06 0.450816
0.805 0.01 -0.00216869 -7.04495e-05 -5.54384e-06 0.424418
0.81 0.01 -0.00203537 -6.82029e-05 -5.1972e-06 0.398821
0.815 0.01 -0.00190631 -6.59545e-05 -4.86181e-06 0.374029
0.82 0.01 -0.00178151 -6.37061e-05 -4.53766e-06 0.350041
0.825 0.01 -0.00166098 -6.1459e-05 -4.22475e-06 0.32686
0.83 0.01 -0.00154471 -5.92147e-05 -3.92307e-06 0.304485
0.835 0.01 -0.00143269 -5.69743e-05 -3.6326e-06 0.282916
0.84 0.01 -0.00132493 -5.47389e-05 -3.35332e-06 0.262153
0.845 0.01 -0.00122141 -5.25092e-05 -3.08521e-06 0.242194
0.85 0.01 -0.00112213 -5.02859e-05 -2.82823e-06 0.223039
0.855 0.01 -0.00102708 -4.80697e-05 -2.58234e-06 0.204685
0.86 0.01 -0.000936232 -4.5861e-05 -2.34752e-06 0.187132
0.865 0.01 -0.000849589 -4.366e-05 -2.12372e-06 0.170377
0.87 0.01 -0.000767135 -4.1467e-05 -1.91091e-06 0.154419
0.875 0.01 -0.000688855 -3.9282e-05 -1.70904e-06 0.139254
0.88 0.01 -0.000614736 -3.71049e-05 -1.51808e-06 0.124882
0.885 0.01 -0.000544765 -3.49358e-05 -1.33799e-06 0.1113
0.89 0.01 -0.000478927 -3.27742e-05 -1.16871e-06 0.0985049
0.895 0.01 -0.000417209 -3.06201e-05 -1.01023e-06 0.0864949
0.9 0.01 -0.000359598 -2.84731e-05 -8.62505e-07 0.0752674
0.905 0.01 -0.00030608 -2.63328e-05 -7.25494e-07 0.0648197
0.91 0.01 -0.000256642 -2.41992e-05 -5.99167e-07 0.0551491
0.915 0.01 -0.000211268 -2.20719e-05 -4.83494e-07 0.0462523
0.92 0.01 -0.000169945 -1.99511e-05 -3.78441e-07 0.038126
0.925 0.01 -0.000132656 -1.78372e-05 -2.83976e-07 0.0307661
0.93 0.01 -9.93813e-05 -1.57311e-05 -2.00063e-07 0.0241677
0.935 0.01 -7.00987e-05 -1.36345e-05 -1.26659e-07 0.0183248
0.94 0.01 -4.47788e-05 -1.15503e-05 -6.37125e-08 0.0132298
0.945 0.01 -2.33833e-05 -9.48318e-06 -1.11513e-08 0.00887252
0.95 0.01 -5.86087e-06 -7.44014e-06 3.11233e-08 0.00523984
0.955 0.01 7.85922e-06 -5.43204e-06 6.32534e-08 0.00231393
0.96 0.01 1.78752e-05 -3.47526e-06 8.54464e-08 7.07527e-05
0.965 0.01 2.43252e-05 -1.59451e-06 9.80081e-08 -0.00152246
0.97 0.01 2.74042e-05 1.72726e-07 1.01393e-07 -0.00251051
0.975 0.01 2.73897e-05 1.76905e-06 9.62818e-08 -0.00295472
0.98 0.01 2.46772e-05 3.10571e-06 8.37031e-08 -0.00293872
0.985 0.01 1.98314e-05 4.04498e-06 6.5225e-08 -0.00257485
0.99 0.01 1.36544e-05 4.37786e-06 4.32533e-08 -0.00200813
0.995 0.01 7.2642e-06 3.81959e-06 2.14463e-08 -0.0014067
1 0.01 2.14063e-06 2.14463e-06 5.05731e-09 -0.000904942
0 0.015 0 0 -0.00171251 0
0.005 0.015 0 0 0 -256.022
0.01 0.015 -0.152679 0.184557 -0.00179972 -79.3354
0.015 0.015 -0.205767 -0.0241488 -0.00184557 -16.6645
0.02 0.015 -0.203883 -0.0576767 -0.00155823 2.37648
0.025 0.015 -0.183874 -0.0522336 -0.0012688 8.0543
0.03 0.015 -0.160682 -0.0411864 -0.0010359 9.42048
0.035 0.015 -0.139281 -0.0316426 -0.00085694 9.32074
0.04 0.015 -0.120894 -0.0244505 -0.000719473 8.73391
0.045 0.015 -0.105472 -0.0191775 -0.000612435 8.01817
0.05 0.015 -0.092615 -0.0152884 -0.000527698 7.30733
0.055 0.015 -0.0818791 -0.0123708 -0.000459551 6.64929
0.06 0.015 -0.0728752 -0.0101391 -0.000403989 6.05799
0.065 0.015 -0.065284 -0.00840001 -0.000358159 5.53388
0.07 0.015 -0.05885 -0.0070221 -0.000319989 5.07228
0.075 0.015 -0.05337 -0.00591452 -0.000287938 4.66692
0.08 0.015 -0.0486819 -0.0050131 -0.000260843 4.31134
0.085 0.015 -0.0446557 -0.00427156 -0.000237806 3.9995
0.09 0.015 -0.0411866 -0.00365581 -0.000218127 3.72598
0.095 0.015 -0.0381889 -0.00314028 -0.000201248 3.48599
0.1 0.015 -0.0355927 -0.00270548 -0.000186723 3.27539
0.105 0.015 -0.0333401 -0.00233633 -0.000174192 3.09055
0.11 0.015 -0.031383 -0.00202102 -0.000163359 2.92834
0.115 0.015 -0.0296815 -0.00175019 -0.000153981 2.78607
0.12 0.015 -0.0282018 -0.00151636 -0.000145857 2.66139
0.125 0.015 -0.0269154 -0.00131349 -0.000138817 2.55227
0.13 0.015 -0.0257983 -0.00113669 -0.000132721 2.45695
0.135 0.015 -0.0248298 -0.000981951 -0.000127449 2.3739
0.14 0.015 -0.0239925 -0.000845964 -0.000122901 2.30177
0.145 0.015 -0.0232712 -0.000726002 -0.000118989 2.2394
0.15 0.015 -0.0226529 -0.000619793 -0.00011564 2.18577
0.155 0.015 -0.0221263 -0.000525439 -0.000112791 2.13998
0.16 0.015 -0.0216816 -0.000441345 -0.000110385 2.10123
0.165 0.015 -0.0213103 -0.00036617 -0.000108377 2.06883
0.17 0.015 -0.0210048 -0.000298777 -0.000106723 2.04216
0.175 0.015 -0.0207586 -0.000238202 -0.000105388 2.02066
0.18 0.015 -0.0205658 -0.000183625 -0.000104341 2.00385
0.185 0.015 -0.0204214 -0.000134345 -0.000103552 1.99128
0.19 0.015 -0.0203206 -8.97619e-05 -0.000102997 1.98256
0.195 0.015 -0.0202596 -4.93615e-05 -0.000102654 1.97735
0.2 0.015 -0.0202345 -1.27013e-05 -0.000102503 1.97531
0.205 0.015 -0.0202421 2.05995e-05 -0.000102526 1.97616
0.21 0.015 -0.0202794 5.08697e-05 -0.000102708 1.97963
0.215 0.015 -0.0203437 7.83931e-05 -0.000103035 1.98548
0.22 0.015 -0.0204326 0.000103415 -0.000103492 1.99349
0.225 0.015 -0.0205438 0.000126148 -0.000104069 2.00346
0.23 0.015 -0.0206752 0.000146776 -0.000104753 2.01519
0.235 0.015 -0.0208249 0.000165459 -0.000105536 2.02852
0.24 0.015 -0.0209912 0.000182335 -0.000106408 2.04328
0.245 0.015 -0.0211723 0.000197525 -0.00010736 2.05931
0.25 0.015 -0.0213667 0.000211133 -0.000108383 2.07647
0.255 0.015 -0.0215729 0.000223249 -0.000109471 2.09463
0.26 0.015 -0.0217896 0.000233954 -0.000110616 2.11366
0.265 0.015 -0.0220154 0.000243315 -0.000111811 2.13343
0.27 0.015 -0.0222491 0.000251395 -0.000113049 2.15383
0.275 0.015 -0.0224894 0.000258244 -0.000114325 2.17475
0.28 0.015 -0.0227353 0.000263911 -0.000115632 2.19608
0.285 0.015 -0.0229855 0.000268437 -0.000116964 2.21772
0.29 0.015 -0.0232391 0.000271858 -0.000118317 2.23957
0.295 0.015 -0.023495 0.000274208 -0.000119683 2.26153
0.3 0.015 -0.0237521 0.000275516 -0.000121059 2.28352
0.305 0.015 -0.0240096 0.00027581 -0.000122439 2.30544
0.31 0.015 -0.0242663 0.000275116 -0.000123818 2.32721
0.315 0.015 -0.0245215 0.000273459 -0.00012519 2.34874
0.32 0.015 -0.0247742 0.00027086 -0.000126553 2.36995
0.325 0.015 -0.0250235 0.000267343 -0.0001279 2.39077
0.33 0.015 -0.0252686 0.00026293 -0.000129227 2.41112
0.335 0.015 -0.0255087 0.000257642 -0.00013053 2.43092
0.34 0.015 -0.0257428 0.000251502 -0.000131804 2.45011
0.345 0.015 -0.0259703 0.000244531 -0.000133045 2.46862
0.35 0.015 -0.0261904 0.000236755 -0.00013425 2.48637
0.355 0.015 -0.0264023 0.000228195 -0.000135414 2.50332
0.36 0.015 -0.0266053 0.000218877 -0.000136533 2.51939
0.365 0.015 -0.0267987 0.000208826 -0.000137604 2.53453
0.37 0.015 -0.0269819 0.00019807 -0.000138622 2.54869
0.375 0.015 -0.0271543 0.000186636 -0.000139585 2.56181
0.38 0.015 -0.0273151 0.000174554 -0.00014049 2.57385
0.385 0.015 -0.0274639 0.000161853 -0.000141332 2.58475
0.39 0.015 -0.0276001 0.000148565 -0.000142109 2.59447
0.395 0.015 -0.0277232 0.000134723 -0.000142819 2.60297
0.4 0.015 -0.0278326 0.000120362 -0.000143458 2.61022
0.405 0.015 -0.027928 0.000105515 -0.000144023 2.61619
0.41 0.015 -0.028009 9.02208e-05 -0.000144514 2.62083
0.415 0.015 -0.0280751 7.45151e-05 -0.000144927 2.62412
0.42 0.015 -0.028126 5.84369e-05 -0.00014526 2.62604
0.425 0.015 -0.0281614 4.20254e-05 -0.000145513 2.62657
0.43 0.015 -0.028181 2.53206e-05 -0.000145682 2.62569
0.435 0.015 -0.0281847 8.36356e-06 -0.000145767 2.62339
0.44 0.015 -0.0281721 -8.80449e-06 -0.000145767 2.61964
0.445 0.015 -0.0281432 -2.61417e-05 -0.000145681 2.61446
0.45 0.015 -0.0280979 -4.36057e-05 -0.000145507 2.60782
0.455 0.015 -0.0280361 -6.11543e-05 -0.000145246 2.59974
0.46 0.015 -0.0279577 -7.87449e-05 -0.000144897 2.59021
0.465 0.015 -0.0278627 -9.63352e-05 -0.00014446 2.57924
0.47 0.015 -0.0277512 -0.000113883 -0.000143935 2.56683
0.475 0.015 -0.0276233 -0.000131346 -0.000143323 2.55301
0.48 0.015 -0.0274792 -0.000148684 -0.000142623 2.53778
0.485 0.015 -0.0273188 -0.000165856 -0.000141837 2.52117
0.49 0.015 -0.0271425 -0.000182821 -0.000140966 2.50319
0.495 0.015 -0.0269505 -0.000199542 -0.000140011 2.48386
0.5 0.015 -0.0267431 -0.00021598 -0.000138972 2.46322
0.505 0.015 -0.0265204 -0.000232099 -0.000137852 2.4413
0.51 0.015 -0.026283 -0.000247864 -0.000136653 2.41812
0.515 0.015 -0.0260311 -0.00026324 -0.000135375 2.39372
0.52 0.015 -0.0257651 -0.000278196 -0.000134022 2.36814
0.525 0.015 -0.0254855 -0.000292702 -0.000132595 2.34141
0.53 0.015 -0.0251927 -0.000306729 -0.000131096 2.31358
0.535 0.015 -0.0248871 -0.000320249 -0.000129529 2.28469
0.54 0.015 -0.0245693 -0.000333239 -0.000127895 2.25477
0.545 0.015 -0.0242398 -0.000345675 -0.000126198 2.22388
0.55 0.015 -0.0238991 -0.000357538 -0.00012444 2.19207
0.555 0.015 -0.0235477 -0.000368807 -0.000122624 2.15938
0.56 0.015 -0.0231862 -0.000379468 -0.000120753 2.12585
0.565 0.015 -0.0228153 -0.000389505 -0.000118831 2.09155
0.57 0.015 -0.0224354 -0.000398908 -0.000116859 2.05652
0.575 0.015 -0.0220472 -0.000407666 -0.000114843 2.02081
0.58 0.015 -0.0216514 -0.000415771 -0.000112784 1.98447
0.585 0.015 -0.0212484 -0.000423219 -0.000110686 1.94756
0.59 0.015 -0.0208389 -0.000430006 -0.000108553 1.91012
0.595 0.015 -0.0204236 -0.000436131 -0.000106387 1.87221
0.6 0.015 -0.020003 -0.000441596 -0.000104193 1.83389
0.605 0.015 -0.0195777 -0.000446402 -0.000101973 1.7952
0.61 0.015 -0.0191485 -0.000450555 -9.97299e-05 1.75619
0.615 0.015 -0.0187158 -0.000454062 -9.7468e-05 1.71691
0.62 0.015 -0.0182802 -0.000456931 -9.51903e-05 1.67742
0.625 0.015 -0.0178424 -0.000459171 -9.28997e-05 1.63775
0.63 0.015 -0.0174029 -0.000460796 -9.05995e-05 1.59797
0.635 0.015 -0.0169623 -0.000461817 -8.82927e-05 1.55812
0.64 0.015 -0.0165212 -0.00046225 -8.59822e-05 1.51824
0.645 0.015 -0.01608 -0.000462109 -8.3671e-05 1.47838
0.65 0.015 -0.0156393 -0.000461412 -8.13619e-05 1.43858
0.655 0.015 -0.0151996 -0.000460177 -7.90577e-05 1.39888
0.66 0.015 -0.0147615 -0.000458421 -7.67609e-05 1.35933
0.665 0.015 -0.0143252 -0.000456164 -7.44742e-05 1.31996
0.67 0.015 -0.0138914 -0.000453427 -7.21999e-05 1.28082
0.675 0.015 -0.0134604 -0.000450229 -6.99406e-05 1.24193
0.68 0.015 -0.0130327 -0.000446591 -6.76983e-05 1.20334
0.685 0.015 -0.0126087 -0.000442535 -6.54752e-05 1.16507
0.69 0.015 -0.0121887 -0.000438082 -6.32735e-05 1.12716
0.695 0.015 -0.0117731 -0.000433254 -6.10949e-05 1.08964
0.7 0.015 -0.0113623 -0.000428071 -5.89414e-05 1.05254
0.705 0.015 -0.0109565 -0.000422555 -5.68147e-05 1.01588
0.71 0.015 -0.010556 -0.000416726 -5.47163e-05 0.979689
0.715 0.015 -0.0101612 -0.000410606 -5.26478e-05 0.943992
0.72 0.015 -0.00977232 -0.000404215 -5.06106e-05 0.908812
0.725 0.015 -0.00938955 -0.000397573 -4.8606e-05 0.874169
0.73 0.015 -0.00901316 -0.000390699 -4.66352e-05 0.840082
0.735 0.015 -0.00864334 -0.000383612 -4.46993e-05 0.80657
0.74 0.015 -0.00828029 -0.00037633 -4.27993e-05 0.773649
0.745 0.015 -0.00792418 -0.00036887 -4.09362e-05 0.741336
0.75 0.015 -0.00757517 -0.00036125 -3.91108e-05 0.709643
0.755 0.015 -0.00723341 -0.000353486 -3.73239e-05 0.678584
0.76 0.015 -0.00689903 -0.000345593 -3.55762e-05 0.64817
0.765 0.015 -0.00657213 -0.000337585 -3.38682e-05 0.618413
0.77 0.015 -0.00625284 -0.000329477 -3.22005e-05 0.589322
0.775 0.015 -0.00594123 -0.000321281 -3.05735e-05 0.560906
0.78 0.015 -0.00563739 -0.000313009 -2.89878e-05 0.533172
0.785 0.015 -0.00534138 -0.000304674 -2.74435e-05 0.506126
0.79 0.015 -0.00505326 -0.000296285 -2.59411e-05 0.479776
0.795 0.015 -0.00477309 -0.000287853 -2.44807e-05 0.454126
0.8 0.015 -0.0045009 -0.000279386 -2.30626e-05 0.42918
0.805 0.015 -0.00423672 -0.000270894 -2.16869e-05 0.404943
0.81 0.015 -0.00398059 -0.000262383 -2.03537e-05 0.381417
0.815 0.015 -0.00373251 -0.000253861 -1.90631e-05 0.358605
0.82 0.015 -0.0034925 -0.000245334 -1.78151e-05 0.33651