Title=" Lid Driven Flow"
VARIABLES="X","Y","U","V","psi","xi"
ZONE T= "BOX", I= 201, J=201, F=POINT
0 0 0 0 0.00147051 0
0.005 0 0 0 0 0
0.01 0 0 0 0 0
0.015 0 0 0 0 161.89
0.02 0 0 0 0 176.129
0.025 0 0 0 0 155.627
0.03 0 0 0 0 133.26
0.035 0 0 0 0 115.766
0.04 0 0 0 0 102.935
0.045 0 0 0 0 93.4198
0.05 0 0 0 0 86.1073
0.055 0 0 0 0 80.2637
0.06 0 0 0 0 75.4303
0.065 0 0 0 0 71.3186
0.07 0 0 0 0 67.7414
0.075 0 0 0 0 64.5734
0.08 0 0 0 0 61.7271
0.085 0 0 0 0 59.1404
0.09 0 0 0 0 56.7674
0.095 0 0 0 0 54.574
0.1 0 0 0 0 52.5343
0.105 0 0 0 0 50.6281
0.11 0 0 0 0 48.8395
0.115 0 0 0 0 47.1559
0.12 0 0 0 0 45.5667
0.125 0 0 0 0 44.0635
0.13 0 0 0 0 42.639
0.135 0 0 0 0 41.2871
0.14 0 0 0 0 40.0022
0.145 0 0 0 0 38.7797
0.15 0 0 0 0 37.6154
0.155 0 0 0 0 36.5053
0.16 0 0 0 0 35.446
0.165 0 0 0 0 34.4343
0.17 0 0 0 0 33.4671
0.175 0 0 0 0 32.5417
0.18 0 0 0 0 31.6555
0.185 0 0 0 0 30.8059
0.19 0 0 0 0 29.9907
0.195 0 0 0 0 29.2077
0.2 0 0 0 0 28.4548
0.205 0 0 0 0 27.73
0.21 0 0 0 0 27.0315
0.215 0 0 0 0 26.3574
0.22 0 0 0 0 25.7063
0.225 0 0 0 0 25.0763
0.23 0 0 0 0 24.4662
0.235 0 0 0 0 23.8744
0.24 0 0 0 0 23.2996
0.245 0 0 0 0 22.7406
0.25 0 0 0 0 22.1962
0.255 0 0 0 0 21.6652
0.26 0 0 0 0 21.1468
0.265 0 0 0 0 20.6398
0.27 0 0 0 0 20.1433
0.275 0 0 0 0 19.6566
0.28 0 0 0 0 19.1789
0.285 0 0 0 0 18.7094
0.29 0 0 0 0 18.2474
0.295 0 0 0 0 17.7925
0.3 0 0 0 0 17.3439
0.305 0 0 0 0 16.9013
0.31 0 0 0 0 16.4641
0.315 0 0 0 0 16.032
0.32 0 0 0 0 15.6046
0.325 0 0 0 0 15.1817
0.33 0 0 0 0 14.7629
0.335 0 0 0 0 14.3481
0.34 0 0 0 0 13.937
0.345 0 0 0 0 13.5296
0.35 0 0 0 0 13.1257
0.355 0 0 0 0 12.7253
0.36 0 0 0 0 12.3284
0.365 0 0 0 0 11.935
0.37 0 0 0 0 11.545
0.375 0 0 0 0 11.1586
0.38 0 0 0 0 10.7759
0.385 0 0 0 0 10.397
0.39 0 0 0 0 10.022
0.395 0 0 0 0 9.65111
0.4 0 0 0 0 9.28449
0.405 0 0 0 0 8.92234
0.41 0 0 0 0 8.56488
0.415 0 0 0 0 8.21232
0.42 0 0 0 0 7.86489
0.425 0 0 0 0 7.52285
0.43 0 0 0 0 7.18642
0.435 0 0 0 0 6.85586
0.44 0 0 0 0 6.5314
0.445 0 0 0 0 6.21329
0.45 0 0 0 0 5.90177
0.455 0 0 0 0 5.59706
0.46 0 0 0 0 5.29939
0.465 0 0 0 0 5.00896
0.47 0 0 0 0 4.72596
0.475 0 0 0 0 4.45059
0.48 0 0 0 0 4.183
0.485 0 0 0 0 3.92334
0.49 0 0 0 0 3.67174
0.495 0 0 0 0 3.42831
0.5 0 0 0 0 3.19314
0.505 0 0 0 0 2.96628
0.51 0 0 0 0 2.74779
0.515 0 0 0 0 2.53769
0.52 0 0 0 0 2.33599
0.525 0 0 0 0 2.14265
0.53 0 0 0 0 1.95764
0.535 0 0 0 0 1.78089
0.54 0 0 0 0 1.61233
0.545 0 0 0 0 1.45185
0.55 0 0 0 0 1.29933
0.555 0 0 0 0 1.15463
0.56 0 0 0 0 1.0176
0.565 0 0 0 0 0.88808
0.57 0 0 0 0 0.765878
0.575 0 0 0 0 0.650805
0.58 0 0 0 0 0.542656
0.585 0 0 0 0 0.441221
0.59 0 0 0 0 0.346278
0.595 0 0 0 0 0.2576
0.6 0 0 0 0 0.174957
0.605 0 0 0 0 0.098112
0.61 0 0 0 0 0.0268281
0.615 0 0 0 0 -0.0391343
0.62 0 0 0 0 -0.100015
0.625 0 0 0 0 -0.156052
0.63 0 0 0 0 -0.207483
0.635 0 0 0 0 -0.254544
0.64 0 0 0 0 -0.297466
0.645 0 0 0 0 -0.336477
0.65 0 0 0 0 -0.371801
0.655 0 0 0 0 -0.403658
0.66 0 0 0 0 -0.43226
0.665 0 0 0 0 -0.457815
0.67 0 0 0 0 -0.480525
0.675 0 0 0 0 -0.500585
0.68 0 0 0 0 -0.518182
0.685 0 0 0 0 -0.533496
0.69 0 0 0 0 -0.546699
0.695 0 0 0 0 -0.557956
0.7 0 0 0 0 -0.567421
0.705 0 0 0 0 -0.575242
0.71 0 0 0 0 -0.581555
0.715 0 0 0 0 -0.586488
0.72 0 0 0 0 -0.590161
0.725 0 0 0 0 -0.59268
0.73 0 0 0 0 -0.594147
0.735 0 0 0 0 -0.594649
0.74 0 0 0 0 -0.594266
0.745 0 0 0 0 -0.59307
0.75 0 0 0 0 -0.591121
0.755 0 0 0 0 -0.588471
0.76 0 0 0 0 -0.585166
0.765 0 0 0 0 -0.581241
0.77 0 0 0 0 -0.576725
0.775 0 0 0 0 -0.571642
0.78 0 0 0 0 -0.566008
0.785 0 0 0 0 -0.559833
0.79 0 0 0 0 -0.553125
0.795 0 0 0 0 -0.545886
0.8 0 0 0 0 -0.538115
0.805 0 0 0 0 -0.52981
0.81 0 0 0 0 -0.520966
0.815 0 0 0 0 -0.511577
0.82 0 0 0 0 -0.501637
0.825 0 0 0 0 -0.491139
0.83 0 0 0 0 -0.480078
0.835 0 0 0 0 -0.46845
0.84 0 0 0 0 -0.456253
0.845 0 0 0 0 -0.443487
0.85 0 0 0 0 -0.430155
0.855 0 0 0 0 -0.416263
0.86 0 0 0 0 -0.401821
0.865 0 0 0 0 -0.386844
0.87 0 0 0 0 -0.371348
0.875 0 0 0 0 -0.355356
0.88 0 0 0 0 -0.338898
0.885 0 0 0 0 -0.322004
0.89 0 0 0 0 -0.304715
0.895 0 0 0 0 -0.287074
0.9 0 0 0 0 -0.269132
0.905 0 0 0 0 -0.250947
0.91 0 0 0 0 -0.23258
0.915 0 0 0 0 -0.214104
0.92 0 0 0 0 -0.195598
0.925 0 0 0 0 -0.177147
0.93 0 0 0 0 -0.158847
0.935 0 0 0 0 -0.140802
0.94 0 0 0 0 -0.123127
0.945 0 0 0 0 -0.105946
0.95 0 0 0 0 -0.0893964
0.955 0 0 0 0 -0.0736277
0.96 0 0 0 0 -0.0588028
0.965 0 0 0 0 -0.0450992
0.97 0 0 0 0 -0.0327095
0.975 0 0 0 0 -0.0218407
0.98 0 0 0 0 -0.0127106
0.985 0 0 0 0 -0.00553939
0.99 0 0 0 0 -0.000527054
0.995 0 0 0 0 0.00219765
1 0 0 0 0 0.00269448
0 0.005 0 0 0 0
0.005 0.005 0 0 0 0
0.01 0.005 0 0 0 73.7259
0.015 0.005 0 0 0 62.0126
0.02 0.005 0 0 0 45.5918
0.025 0.005 0 0 0 33.7831
0.03 0.005 0 0 0 25.8958
0.035 0.005 0 0 0 20.5267
0.04 0.005 0 0 0 16.7212
0.045 0.005 0 0 0 13.9128
0.05 0.005 0 0 0 11.769
0.055 0.005 0 0 0 10.0883
0.06 0.005 0 0 0 8.7436
0.065 0.005 0 0 0 7.65052
0.07 0.005 0 0 0 6.75103
0.075 0.005 0 0 0 6.00366
0.08 0.005 0 0 0 5.37787
0.085 0.005 0 0 0 4.8506
0.09 0.005 0 0 0 4.4041
0.095 0.005 0 0 0 4.02447
0.1 0.005 0 0 0 3.70064
0.105 0.005 0 0 0 3.42376
0.11 0.005 0 0 0 3.1866
0.115 0.005 0 0 0 2.98326
0.12 0.005 0 0 0 2.80889
0.125 0.005 0 0 0 2.65944
0.13 0.005 0 0 0 2.53154
0.135 0.005 0 0 0 2.42236
0.14 0.005 0 0 0 2.32951
0.145 0.005 0 0 0 2.25098
0.15 0.005 0 0 0 2.18503
0.155 0.005 0 0 0 2.1302
0.16 0.005 0 0 0 2.08522
0.165 0.005 0 0 0 2.04901
0.17 0.005 0 0 0 2.02062
0.175 0.005 0 0 0 1.99925
0.18 0.005 0 0 0 1.98418
0.185 0.005 0 0 0 1.97479
0.19 0.005 0 0 0 1.97054
0.195 0.005 0 0 0 1.97094
0.2 0.005 0 0 0 1.97557
0.205 0.005 0 0 0 1.98405
0.21 0.005 0 0 0 1.99604
0.215 0.005 0 0 0 2.01124
0.22 0.005 0 0 0 2.02938
0.225 0.005 0 0 0 2.0502
0.23 0.005 0 0 0 2.07347
0.235 0.005 0 0 0 2.09899
0.24 0.005 0 0 0 2.12657
0.245 0.005 0 0 0 2.15601
0.25 0.005 0 0 0 2.18716
0.255 0.005 0 0 0 2.21986
0.26 0.005 0 0 0 2.25394
0.265 0.005 0 0 0 2.28927
0.27 0.005 0 0 0 2.32571
0.275 0.005 0 0 0 2.36312
0.28 0.005 0 0 0 2.40138
0.285 0.005 0 0 0 2.44035
0.29 0.005 0 0 0 2.47992
0.295 0.005 0 0 0 2.51996
0.3 0.005 0 0 0 2.56035
0.305 0.005 0 0 0 2.60097
0.31 0.005 0 0 0 2.64172
0.315 0.005 0 0 0 2.68247
0.32 0.005 0 0 0 2.72311
0.325 0.005 0 0 0 2.76352
0.33 0.005 0 0 0 2.80361
0.335 0.005 0 0 0 2.84325
0.34 0.005 0 0 0 2.88234
0.345 0.005 0 0 0 2.92076
0.35 0.005 0 0 0 2.95843
0.355 0.005 0 0 0 2.99522
0.36 0.005 0 0 0 3.03104
0.365 0.005 0 0 0 3.06578
0.37 0.005 0 0 0 3.09935
0.375 0.005 0 0 0 3.13165
0.38 0.005 0 0 0 3.16259
0.385 0.005 0 0 0 3.19207
0.39 0.005 0 0 0 3.22
0.395 0.005 0 0 0 3.24631
0.4 0.005 0 0 0 3.27091
0.405 0.005 0 0 0 3.29371
0.41 0.005 0 0 0 3.31465
0.415 0.005 0 0 0 3.33366
0.42 0.005 0 0 0 3.35066
0.425 0.005 0 0 0 3.3656
0.43 0.005 0 0 0 3.37843
0.435 0.005 0 0 0 3.38908
0.44 0.005 0 0 0 3.39751
0.445 0.005 0 0 0 3.40369
0.45 0.005 0 0 0 3.40757
0.455 0.005 0 0 0 3.40913
0.46 0.005 0 0 0 3.40833
0.465 0.005 0 0 0 3.40517
0.47 0.005 0 0 0 3.39962
0.475 0.005 0 0 0 3.39169
0.48 0.005 0 0 0 3.38136
0.485 0.005 0 0 0 3.36864
0.49 0.005 0 0 0 3.35355
0.495 0.005 0 0 0 3.33611
0.5 0.005 0 0 0 3.31632
0.505 0.005 0 0 0 3.29423
0.51 0.005 0 0 0 3.26986
0.515 0.005 0 0 0 3.24325
0.52 0.005 0 0 0 3.21445
0.525 0.005 0 0 0 3.18351
0.53 0.005 0 0 0 3.15049
0.535 0.005 0 0 0 3.11543
0.54 0.005 0 0 0 3.07842
0.545 0.005 0 0 0 3.0395
0.55 0.005 0 0 0 2.99877
0.555 0.005 0 0 0 2.95629
0.56 0.005 0 0 0 2.91214
0.565 0.005 0 0 0 2.86642
0.57 0.005 0 0 0 2.81919
0.575 0.005 0 0 0 2.77055
0.58 0.005 0 0 0 2.7206
0.585 0.005 0 0 0 2.66942
0.59 0.005 0 0 0 2.61711
0.595 0.005 0 0 0 2.56376
0.6 0.005 0 0 0 2.50947
0.605 0.005 0 0 0 2.45433
0.61 0.005 0 0 0 2.39845
0.615 0.005 0 0 0 2.34191
0.62 0.005 0 0 0 2.28482
0.625 0.005 0 0 0 2.22727
0.63 0.005 0 0 0 2.16935
0.635 0.005 0 0 0 2.11116
0.64 0.005 0 0 0 2.05278
0.645 0.005 0 0 0 1.99432
0.65 0.005 0 0 0 1.93584
0.655 0.005 0 0 0 1.87745
0.66 0.005 0 0 0 1.81921
0.665 0.005 0 0 0 1.76122
0.67 0.005 0 0 0 1.70354
0.675 0.005 0 0 0 1.64626
0.68 0.005 0 0 0 1.58943
0.685 0.005 0 0 0 1.53314
0.69 0.005 0 0 0 1.47744
0.695 0.005 0 0 0 1.42239
0.7 0.005 0 0 0 1.36805
0.705 0.005 0 0 0 1.31447
0.71 0.005 0 0 0 1.26171
0.715 0.005 0 0 0 1.2098
0.72 0.005 0 0 0 1.1588
0.725 0.005 0 0 0 1.10874
0.73 0.005 0 0 0 1.05966
0.735 0.005 0 0 0 1.01159
0.74 0.005 0 0 0 0.964563
0.745 0.005 0 0 0 0.918601
0.75 0.005 0 0 0 0.873728
0.755 0.005 0 0 0 0.829966
0.76 0.005 0 0 0 0.787331
0.765 0.005 0 0 0 0.745839
0.77 0.005 0 0 0 0.7055
0.775 0.005 0 0 0 0.666326
0.78 0.005 0 0 0 0.628322
0.785 0.005 0 0 0 0.591494
0.79 0.005 0 0 0 0.555845
0.795 0.005 0 0 0 0.521376
0.8 0.005 0 0 0 0.488085
0.805 0.005 0 0 0 0.455971
0.81 0.005 0 0 0 0.425029
0.815 0.005 0 0 0 0.395254
0.82 0.005 0 0 0 0.366638
0.825 0.005 0 0 0 0.339175
0.83 0.005 0 0 0 0.312855
0.835 0.005 0 0 0 0.287668
0.84 0.005 0 0 0 0.263605
0.845 0.005 0 0 0 0.240653
0.85 0.005 0 0 0 0.2188
0.855 0.005 0 0 0 0.198036
0.86 0.005 0 0 0 0.178346
0.865 0.005 0 0 0 0.159718
0.87 0.005 0 0 0 0.142139
0.875 0.005 0 0 0 0.125595
0.88 0.005 0 0 0 0.110074
0.885 0.005 0 0 0 0.0955617
0.89 0.005 0 0 0 0.0820451
0.895 0.005 0 0 0 0.0695111
0.9 0.005 0 0 0 0.0579466
0.905 0.005 0 0 0 0.0473388
0.91 0.005 0 0 0 0.0376749
0.915 0.005 0 0 0 0.0289422
0.92 0.005 0 0 0 0.021128
0.925 0.005 0 0 0 0.0142194
0.93 0.005 0 0 0 0.00820318
0.935 0.005 0 0 0 0.00306545
0.94 0.005 0 0 0 -0.0012089
0.945 0.005 0 0 0 -0.00463675
0.95 0.005 0 0 0 -0.00723775
0.955 0.005 0 0 0 -0.00903563
0.96 0.005 0 0 0 -0.0100602
0.965 0.005 0 0 0 -0.0103503
0.97 0.005 0 0 0 -0.0099577
0.975 0.005 0 0 0 -0.0089541
0.98 0.005 0 0 0 -0.00744036
0.985 0.005 0 0 0 -0.00556169
0.99 0.005 0 0 0 -0.00352974
0.995 0.005 0 0 0 -0.00165051
1 0.005 0 0 0 -0.000337424
0 0.01 0 0 -0.000337424 0
0.005 0.01 0 0 0 -326.274
0.01 0.01 -0.179984 0.0775157 -0.000921574 -44.4521
0.015 0.01 -0.184606 -0.0351676 -0.000775157 9.47603
0.02 0.01 -0.155915 -0.0352868 -0.000569898 19.08
0.025 0.01 -0.126991 -0.02462 -0.000422289 18.9742
0.03 0.01 -0.103685 -0.0165705 -0.000323698 16.8372
0.035 0.01 -0.0857372 -0.0114683 -0.000256584 14.5499
0.04 0.01 -0.0719113 -0.00826742 -0.000209015 12.5419
0.045 0.01 -0.0611108 -0.00619026 -0.00017391 10.8638
0.05 0.01 -0.052532 -0.00478056 -0.000147112 9.47543
0.055 0.01 -0.0456113 -0.0037817 -0.000126104 8.32413
0.06 0.01 -0.0399537 -0.00304728 -0.000109295 7.36369
0.065 0.01 -0.0352773 -0.00249071 -9.56314e-05 6.5572
0.07 0.01 -0.0313771 -0.00205856 -8.43878e-05 5.87586
0.075 0.01 -0.0281002 -0.00171644 -7.50456e-05 5.29722
0.08 0.01 -0.0253305 -0.00144131 -6.72232e-05 4.8036
0.085 0.01 -0.0229779 -0.00121719 -6.06323e-05 4.38097
0.09 0.01 -0.0209717 -0.00103265 -5.50511e-05 4.01804
0.095 0.01 -0.0192555 -0.000879302 -5.03056e-05 3.70564
0.1 0.01 -0.0177836 -0.000750866 -4.62579e-05 3.43627
0.105 0.01 -0.016519 -0.00064254 -4.27968e-05 3.20372
0.11 0.01 -0.0154313 -0.000550599 -3.98323e-05 3.00283
0.115 0.01 -0.0144952 -0.000472114 -3.72906e-05 2.82931
0.12 0.01 -0.0136899 -0.00040476 -3.5111e-05 2.67952
0.125 0.01 -0.0129976 -0.000346669 -3.32428e-05 2.5504
0.13 0.01 -0.0124038 -0.000296331 -3.16441e-05 2.43935
0.135 0.01 -0.0118958 -0.000252515 -3.02793e-05 2.34415
0.14 0.01 -0.0114631 -0.000214213 -2.91188e-05 2.26291
0.145 0.01 -0.0110967 -0.000180591 -2.81371e-05 2.194
0.15 0.01 -0.0107887 -0.000150961 -2.73127e-05 2.13601
0.155 0.01 -0.0105325 -0.000124748 -2.66273e-05 2.08775
0.16 0.01 -0.0103224 -0.000101471 -2.60651e-05 2.04815
0.165 0.01 -0.0101535 -8.07285e-05 -2.56124e-05 2.01631
0.17 0.01 -0.0100213 -6.21796e-05 -2.52576e-05 1.99142
0.175 0.01 -0.00992219 -4.5538e-05 -2.49905e-05 1.97278
0.18 0.01 -0.0098528 -3.05606e-05 -2.48021e-05 1.95979
0.185 0.01 -0.00981027 -1.70413e-05 -2.46848e-05 1.95189
0.19 0.01 -0.00979204 -4.80452e-06 -2.46316e-05 1.94861
0.195 0.01 -0.00979586 6.29942e-06 -2.46366e-05 1.94952
0.2 0.01 -0.00981971 1.63982e-05 -2.46945e-05 1.95425
0.205 0.01 -0.00986181 2.56007e-05 -2.48005e-05 1.96244
0.21 0.01 -0.00992056 3.40004e-05 -2.49505e-05 1.97379
0.215 0.01 -0.0099945 4.1677e-05 -2.51405e-05 1.98803
0.22 0.01 -0.0100823 4.86985e-05 -2.53672e-05 2.00489
0.225 0.01 -0.0101828 5.51234e-05 -2.56274e-05 2.02416
0.23 0.01 -0.0102949 6.10013e-05 -2.59183e-05 2.04561
0.235 0.01 -0.0104176 6.63748e-05 -2.62374e-05 2.06906
0.24 0.01 -0.0105499 7.12801e-05 -2.65821e-05 2.09431
0.245 0.01 -0.0106909 7.57479e-05 -2.69502e-05 2.1212
0.25 0.01 -0.0108399 7.98045e-05 -2.73395e-05 2.14957
0.255 0.01 -0.0109961 8.3472e-05 -2.77482e-05 2.17927
0.26 0.01 -0.0111586 8.6769e-05 -2.81743e-05 2.21014
0.265 0.01 -0.011327 8.97115e-05 -2.86159e-05 2.24206
0.27 0.01 -0.0115003 9.23125e-05 -2.90714e-05 2.2749
0.275 0.01 -0.011678 9.45834e-05 -2.95391e-05 2.30852
0.28 0.01 -0.0118596 9.65334e-05 -3.00173e-05 2.3428
0.285 0.01 -0.0120442 9.81703e-05 -3.05045e-05 2.37762
0.29 0.01 -0.0122314 9.95008e-05 -3.09991e-05 2.41287
0.295 0.01 -0.0124205 0.00010053 -3.14995e-05 2.44844
0.3 0.01 -0.0126111 0.000101263 -3.20044e-05 2.4842
0.305 0.01 -0.0128024 0.000101704 -3.25123e-05 2.52005
0.31 0.01 -0.012994 0.000101857 -3.30216e-05 2.55589
0.315 0.01 -0.0131853 0.000101724 -3.3531e-05 2.59161
0.32 0.01 -0.0133758 0.000101308 -3.4039e-05 2.6271
0.325 0.01 -0.0135649 0.000100613 -3.45442e-05 2.66226
0.33 0.01 -0.0137521 9.96411e-05 -3.50452e-05 2.697
0.335 0.01 -0.0139368 9.83955e-05 -3.55408e-05 2.7312
0.34 0.01 -0.0141186 9.68795e-05 -3.60294e-05 2.76478
0.345 0.01 -0.014297 9.50962e-05 -3.65097e-05 2.79764
0.35 0.01 -0.0144714 9.30495e-05 -3.69805e-05 2.82969
0.355 0.01 -0.0146414 9.07435e-05 -3.74404e-05 2.86083
0.36 0.01 -0.0148064 8.81825e-05 -3.78882e-05 2.89098
0.365 0.01 -0.014966 8.53715e-05 -3.83225e-05 2.92004
0.37 0.01 -0.0151198 8.2316e-05 -3.87421e-05 2.94794
0.375 0.01 -0.0152673 7.90219e-05 -3.91459e-05 2.97459
0.38 0.01 -0.0154081 7.54957e-05 -3.95326e-05 2.9999
0.385 0.01 -0.0155417 7.17445e-05 -3.99011e-05 3.02382
0.39 0.01 -0.0156677 6.7776e-05 -4.02503e-05 3.04625
0.395 0.01 -0.0157858 6.35982e-05 -4.05792e-05 3.06714
0.4 0.01 -0.0158956 5.92202e-05 -4.08866e-05 3.08641
0.405 0.01 -0.0159966 5.46512e-05 -4.11717e-05 3.104
0.41 0.01 -0.0160887 4.99011e-05 -4.14335e-05 3.11985
0.415 0.01 -0.0161715 4.49807e-05 -4.1671e-05 3.13391
0.42 0.01 -0.0162446 3.99009e-05 -4.18836e-05 3.14612
0.425 0.01 -0.0163078 3.46732e-05 -4.20704e-05 3.15645
0.43 0.01 -0.0163609 2.93099e-05 -4.22307e-05 3.16483
0.435 0.01 -0.0164036 2.38235e-05 -4.23639e-05 3.17125
0.44 0.01 -0.0164358 1.82269e-05 -4.24693e-05 3.17565
0.445 0.01 -0.0164572 1.25335e-05 -4.25465e-05 3.17803
0.45 0.01 -0.0164677 6.75711e-06 -4.2595e-05 3.17834
0.455 0.01 -0.0164672 9.11737e-07 -4.26145e-05 3.17657
0.46 0.01 -0.0164556 -4.9883e-06 -4.26046e-05 3.17272
0.465 0.01 -0.0164328 -1.09285e-05 -4.2565e-05 3.16675
0.47 0.01 -0.0163988 -1.68941e-05 -4.24957e-05 3.15869
0.475 0.01 -0.0163535 -2.28704e-05 -4.23965e-05 3.14852
0.48 0.01 -0.016297 -2.88426e-05 -4.22674e-05 3.13624
0.485 0.01 -0.0162293 -3.47956e-05 -4.21085e-05 3.12188
0.49 0.01 -0.0161505 -4.07149e-05 -4.19199e-05 3.10545
0.495 0.01 -0.0160606 -4.65857e-05 -4.17018e-05 3.08697
0.5 0.01 -0.0159599 -5.23935e-05 -4.14544e-05 3.06645
0.505 0.01 -0.0158483 -5.81241e-05 -4.11783e-05 3.04394
0.51 0.01 -0.0157262 -6.37635e-05 -4.08736e-05 3.01947
0.515 0.01 -0.0155936 -6.92981e-05 -4.05411e-05 2.99307
0.52 0.01 -0.0154509 -7.47147e-05 -4.01811e-05 2.9648
0.525 0.01 -0.0152982 -8.00004e-05 -3.97943e-05 2.93469
0.53 0.01 -0.0151358 -8.51432e-05 -3.93815e-05 2.9028
0.535 0.01 -0.014964 -9.01311e-05 -3.89433e-05 2.86918
0.54 0.01 -0.0147832 -9.49532e-05 -3.84806e-05 2.8339
0.545 0.01 -0.0145936 -9.9599e-05 -3.79942e-05 2.79702
0.55 0.01 -0.0143956 -0.000104059 -3.7485e-05 2.75859
0.555 0.01 -0.0141896 -0.000108323 -3.6954e-05 2.71869
0.56 0.01 -0.0139759 -0.000112385 -3.64022e-05 2.67739
0.565 0.01 -0.0137549 -0.000116235 -3.58306e-05 2.63476
0.57 0.01 -0.013527 -0.000119867 -3.52403e-05 2.59088
0.575 0.01 -0.0132927 -0.000123276 -3.46323e-05 2.54583
0.58 0.01 -0.0130523 -0.000126456 -3.40079e-05 2.49968
0.585 0.01 -0.0128063 -0.000129404 -3.33681e-05 2.45251
0.59 0.01 -0.0125551 -0.000132115 -3.27142e-05 2.4044
0.595 0.01 -0.0122992 -0.000134587 -3.20473e-05 2.35544
0.6 0.01 -0.012039 -0.000136819 -3.13687e-05 2.30571
0.605 0.01 -0.011775 -0.00013881 -3.06795e-05 2.25529
0.61 0.01 -0.0115076 -0.000140559 -2.99809e-05 2.20427
0.615 0.01 -0.0112373 -0.000142067 -2.92742e-05 2.15271
0.62 0.01 -0.0109645 -0.000143337 -2.85606e-05 2.10072
0.625 0.01 -0.0106896 -0.00014437 -2.78412e-05 2.04836
0.63 0.01 -0.0104131 -0.000145169 -2.71172e-05 1.99572
0.635 0.01 -0.0101354 -0.000145738 -2.63898e-05 1.94288
0.64 0.01 -0.00985688 -0.000146082 -2.56601e-05 1.88991
0.645 0.01 -0.00957805 -0.000146205 -2.49292e-05 1.83689
0.65 0.01 -0.00929926 -0.000146113 -2.41983e-05 1.78389
0.655 0.01 -0.00902091 -0.000145812 -2.34683e-05 1.73098
0.66 0.01 -0.00874337 -0.000145309 -2.27404e-05 1.67824
0.665 0.01 -0.00846702 -0.000144611 -2.20155e-05 1.62573
0.67 0.01 -0.0081922 -0.000143725 -2.12945e-05 1.57352
0.675 0.01 -0.00791927 -0.000142658 -2.05784e-05 1.52167
0.68 0.01 -0.00764853 -0.00014142 -1.98681e-05 1.47023
0.685 0.01 -0.00738032 -0.000140017 -1.91644e-05 1.41927
0.69 0.01 -0.00711491 -0.00013846 -1.84681e-05 1.36884
0.695 0.01 -0.00685259 -0.000136755 -1.778e-05 1.319
0.7 0.01 -0.00659362 -0.000134913 -1.71007e-05 1.26978
0.705 0.01 -0.00633826 -0.000132941 -1.6431e-05 1.22123
0.71 0.01 -0.00608673 -0.000130849 -1.57715e-05 1.17341
0.715 0.01 -0.00583925 -0.000128645 -1.51227e-05 1.12634
0.72 0.01 -0.00559602 -0.000126338 -1.44851e-05 1.08007
0.725 0.01 -0.00535722 -0.000123937 -1.38594e-05 1.03463
0.73 0.01 -0.00512303 -0.000121449 -1.32459e-05 0.990049
0.735 0.01 -0.00489358 -0.000118884 -1.2645e-05 0.946358
0.74 0.01 -0.00466904 -0.000116249 -1.20571e-05 0.903581
0.745 0.01 -0.00444951 -0.000113553 -1.14826e-05 0.861744
0.75 0.01 -0.0042351 -0.000110802 -1.09217e-05 0.820865
0.755 0.01 -0.00402592 -0.000108004 -1.03746e-05 0.780965
0.76 0.01 -0.00382205 -0.000105166 -9.8417e-06 0.742057
0.765 0.01 -0.00362355 -0.000102295 -9.32304e-06 0.704157
0.77 0.01 -0.00343049 -9.93964e-05 -8.8188e-06 0.667275
0.775 0.01 -0.0032429 -9.64775e-05 -8.32911e-06 0.63142
0.78 0.01 -0.00306084 -9.35435e-05 -7.85406e-06 0.5966
0.785 0.01 -0.00288432 -9.05996e-05 -7.39371e-06 0.562821
0.79 0.01 -0.00271335 -8.76511e-05 -6.94809e-06 0.530086
0.795 0.01 -0.00254796 -8.47025e-05 -6.51722e-06 0.498396
0.8 0.01 -0.00238813 -8.17582e-05 -6.10108e-06 0.467754
0.805 0.01 -0.00223385 -7.88222e-05 -5.69965e-06 0.438156
0.81 0.01 -0.00208512 -7.58982e-05 -5.31287e-06 0.409602
0.815 0.01 -0.0019419 -7.29894e-05 -4.94068e-06 0.382088
0.82 0.01 -0.00180418 -7.00989e-05 -4.58298e-06 0.355609
0.825 0.01 -0.00167191 -6.72295e-05 -4.23969e-06 0.33016
0.83 0.01 -0.00154506 -6.43834e-05 -3.91069e-06 0.305734
0.835 0.01 -0.00142358 -6.15627e-05 -3.59585e-06 0.282324
0.84 0.01 -0.00130743 -5.87694e-05 -3.29505e-06 0.259922
0.845 0.01 -0.00119655 -5.60049e-05 -3.00815e-06 0.238519
0.85 0.01 -0.00109091 -5.32706e-05 -2.735e-06 0.218107
0.855 0.01 -0.00099043 -5.05674e-05 -2.47544e-06 0.198674
0.86 0.01 -0.000895066 -4.78963e-05 -2.22931e-06 0.180212
0.865 0.01 -0.000804758 -4.52577e-05 -1.99646e-06 0.16271
0.87 0.01 -0.000719446 -4.26522e-05 -1.77672e-06 0.146158
0.875 0.01 -0.000639069 -4.00798e-05 -1.56993e-06 0.130544
0.88 0.01 -0.000563566 -3.75408e-05 -1.37591e-06 0.115858
0.885 0.01 -0.000492877 -3.50349e-05 -1.19451e-06 0.102088
0.89 0.01 -0.000426939 -3.2562e-05 -1.02555e-06 0.0892227
0.895 0.01 -0.000365693 -3.01219e-05 -8.68876e-07 0.0772514
0.9 0.01 -0.000309075 -2.77141e-05 -7.2432e-07 0.0661624
0.905 0.01 -0.000257026 -2.53384e-05 -5.91723e-07 0.055944
0.91 0.01 -0.000209482 -2.29946e-05 -4.70924e-07 0.0465843
0.915 0.01 -0.000166384 -2.06825e-05 -3.61766e-07 0.0380711
0.92 0.01 -0.000127666 -1.84024e-05 -2.64089e-07 0.0303919
0.925 0.01 -9.32648e-05 -1.61549e-05 -1.77733e-07 0.0235332
0.93 0.01 -6.31112e-05 -1.39415e-05 -1.02531e-07 0.017481
0.935 0.01 -3.71324e-05 -1.17642e-05 -3.83101e-08 0.0122196
0.94 0.01 -1.52477e-05 -9.62696e-06 1.51184e-08 0.00773158
0.945 0.01 2.63378e-06 -7.53534e-06 5.79657e-08 0.00399695
0.95 0.01 1.66187e-05 -5.49796e-06 9.04772e-08 0.000992071
0.955 0.01 2.68351e-05 -3.52754e-06 1.1295e-07 -0.0013116
0.96 0.01 3.34424e-05 -1.64283e-06 1.25756e-07 -0.00294935
0.965 0.01 3.66431e-05 1.285e-07 1.29381e-07 -0.00396561
0.97 0.01 3.67014e-05 1.74548e-06 1.24473e-07 -0.00441726
0.975 0.01 3.39677e-05 3.1469e-06 1.11928e-07 -0.00437787
0.98 0.01 2.89141e-05 4.24066e-06 9.30053e-08 -0.00394283
0.985 0.01 2.21818e-05 4.88836e-06 6.95215e-08 -0.00323441
0.99 0.01 1.4641e-05 4.88902e-06 4.41218e-08 -0.00240306
0.995 0.01 7.44977e-06 3.9904e-06 2.06313e-08 -0.0016125
1 0.01 2.05904e-06 2.06313e-06 4.21772e-09 -0.000974039
0 0.015 0 0 -0.00164723 0
0.005 0.015 0 0 0 -256.013
0.01 0.015 -0.152707 0.184606 -0.00179984 -79.3224
0.015 0.015 -0.205845 -0.0240688 -0.00184606 -16.6596
0.02 0.015 -0.203999 -0.0576144 -0.00155915 2.36697
0.025 0.015 -0.183993 -0.0522301 -0.00126991 8.0339
0.03 0.015 -0.160753 -0.0412543 -0.00103685 9.39309
0.035 0.015 -0.139256 -0.0317734 -0.000857372 9.28789
0.04 0.015 -0.120733 -0.0246264 -0.000719113 8.69535
0.045 0.015 -0.10515 -0.0193793 -0.000611108 7.97283
0.05 0.015 -0.0921184 -0.0154994 -0.00052532 7.25402
0.055 0.015 -0.0812066 -0.0125783 -0.000456113 6.58714
0.06 0.015 -0.0720333 -0.010334 -0.000399536 5.98656
0.065 0.015 -0.0642849 -0.00857655 -0.000352772 5.45315
0.07 0.015 -0.0577097 -0.00717704 -0.00031377 4.98265
0.075 0.015 -0.0521066 -0.00604654 -0.000281001 4.56905
0.08 0.015 -0.0473143 -0.00512222 -0.000253304 4.20611
0.085 0.015 -0.0432027 -0.00435868 -0.000229779 3.88793
0.09 0.015 -0.0396661 -0.0037224 -0.000209717 3.60915
0.095 0.015 -0.0366178 -0.0031881 -0.000192554 3.36502
0.1 0.015 -0.0339865 -0.0027364 -0.000177835 3.15135
0.105 0.015 -0.0317128 -0.00235224 -0.000165189 2.9645
0.11 0.015 -0.0297474 -0.00202372 -0.000154312 2.80127
0.115 0.015 -0.0280486 -0.00174135 -0.000144951 2.65889
0.12 0.015 -0.0265816 -0.0014975 -0.000136898 2.53495
0.125 0.015 -0.0253165 -0.00128599 -0.000129976 2.42733
0.13 0.015 -0.0242283 -0.00110174 -0.000124037 2.33422
0.135 0.015 -0.0232954 -0.00094059 -0.000118958 2.254
0.14 0.015 -0.0224993 -0.000799096 -0.000114631 2.18527
0.145 0.015 -0.0218243 -0.000674394 -0.000110966 2.12682
0.15 0.015 -0.0212567 -0.000564091 -0.000107886 2.07755
0.155 0.015 -0.0207847 -0.000466185 -0.000105325 2.03654
0.16 0.015 -0.020398 -0.000378987 -0.000103224 2.00294
0.165 0.015 -0.0200876 -0.000301075 -0.000101534 1.97603
0.17 0.015 -0.0198458 -0.000231242 -0.000100213 1.95514
0.175 0.015 -0.0196657 -0.000168465 -9.92214e-05 1.93971
0.18 0.015 -0.0195412 -0.000111872 -9.85276e-05 1.92921
0.185 0.015 -0.0194672 -6.07203e-05 -9.81023e-05 1.9232
0.19 0.015 -0.0194387 -1.43748e-05 -9.792e-05 1.92125
0.195 0.015 -0.0194518 2.77079e-05 -9.79582e-05 1.923
0.2 0.015 -0.0195025 6.59931e-05 -9.81968e-05 1.92813
0.205 0.015 -0.0195876 0.00010088 -9.86179e-05 1.93632
0.21 0.015 -0.019704 0.000132711 -9.92053e-05 1.9473
0.215 0.015 -0.019849 0.00016178 -9.99447e-05 1.96083
0.22 0.015 -0.0200201 0.000188339 -0.000100823 1.97667
0.225 0.015 -0.0202151 0.000212604 -0.000101828 1.99462
0.23 0.015 -0.0204317 0.000234761 -0.000102949 2.01448
0.235 0.015 -0.0206681 0.000254968 -0.000104175 2.03607
0.24 0.015 -0.0209225 0.000273363 -0.000105498 2.05921
0.245 0.015 -0.0211932 0.000290059 -0.000106909 2.08376
0.25 0.015 -0.0214786 0.000305158 -0.000108399 2.10955
0.255 0.015 -0.0217772 0.000318743 -0.000109961 2.13645
0.26 0.015 -0.0220876 0.000330887 -0.000111587 2.16433
0.265 0.015 -0.0224083 0.00034165 -0.00011327 2.19305
0.27 0.015 -0.0227382 0.000351084 -0.000115003 2.22248
0.275 0.015 -0.0230759 0.000359234 -0.000116781 2.25252
0.28 0.015 -0.0234202 0.000366136 -0.000118596 2.28304
0.285 0.015 -0.0237699 0.000371823 -0.000120442 2.31393
0.29 0.015 -0.0241238 0.000376322 -0.000122314 2.34508
0.295 0.015 -0.0244809 0.000379657 -0.000124206 2.37639
0.3 0.015 -0.0248399 0.000381847 -0.000126111 2.40775
0.305 0.015 -0.0251999 0.000382911 -0.000128025 2.43907
0.31 0.015 -0.0255597 0.000382865 -0.000129941 2.47024
0.315 0.015 -0.0259184 0.000381725 -0.000131854 2.50116
0.32 0.015 -0.0262747 0.000379504 -0.000133759 2.53175
0.325 0.015 -0.0266278 0.000376217 -0.00013565 2.56191
0.33 0.015 -0.0269766 0.000371878 -0.000137521 2.59155
0.335 0.015 -0.0273201 0.0003665 -0.000139369 2.62059
0.34 0.015 -0.0276574 0.000360099 -0.000141187 2.64893
0.345 0.015 -0.0279874 0.000352691 -0.000142971 2.67649
0.35 0.015 -0.0283093 0.000344293 -0.000144715 2.7032
0.355 0.015 -0.0286222 0.000334922 -0.000146414 2.72897
0.36 0.015 -0.0289251 0.0003246 -0.000148065 2.75373
0.365 0.015 -0.0292172 0.000313347 -0.000149661 2.7774
0.37 0.015 -0.0294976 0.000301187 -0.000151199 2.79991
0.375 0.015 -0.0297655 0.000288146 -0.000152674 2.8212
0.38 0.015 -0.0300201 0.000274249 -0.000154082 2.8412
0.385 0.015 -0.0302606 0.000259527 -0.000155418 2.85984
0.39 0.015 -0.0304863 0.00024401 -0.000156678 2.87707
0.395 0.015 -0.0306965 0.000227732 -0.000157859 2.89284
0.4 0.015 -0.0308905 0.000210728 -0.000158957 2.90708
0.405 0.015 -0.0310677 0.000193035 -0.000159968 2.91975
0.41 0.015 -0.0312274 0.000174693 -0.000160888 2.93081
0.415 0.015 -0.0313692 0.000155742 -0.000161716 2.94022
0.42 0.015 -0.0314925 0.000136227 -0.000162447 2.94793
0.425 0.015 -0.0315968 0.000116191 -0.000163079 2.95391
0.43 0.015 -0.0316817 9.56805e-05 -0.00016361 2.95814
0.435 0.015 -0.0317469 7.47443e-05 -0.000164038 2.96059
0.44 0.015 -0.0317919 5.34316e-05 -0.000164359 2.96123
0.445 0.015 -0.0318165 3.17929e-05 -0.000164574 2.96006
0.45 0.015 -0.0318205 9.88003e-06 -0.000164679 2.95705
0.455 0.015 -0.0318036 -1.22544e-05 -0.000164674 2.9522
0.46 0.015 -0.0317657 -3.45568e-05 -0.000164558 2.9455
0.465 0.015 -0.0317067 -5.69731e-05 -0.00016433 2.93696
0.47 0.015 -0.0316266 -7.9449e-05 -0.00016399 2.92657
0.475 0.015 -0.0315253 -0.00010193 -0.000163537 2.91435
0.48 0.015 -0.031403 -0.00012436 -0.000162972 2.90031
0.485 0.015 -0.0312597 -0.000146687 -0.000162295 2.88446
0.49 0.015 -0.0310956 -0.000168854 -0.000161507 2.86683
0.495 0.015 -0.0309109 -0.00019081 -0.000160608 2.84743
0.5 0.015 -0.0307058 -0.000212501 -0.0001596 2.8263
0.505 0.015 -0.0304807 -0.000233875 -0.000158485 2.80347
0.51 0.015 -0.0302359 -0.000254882 -0.000157263 2.77897
0.515 0.015 -0.0299717 -0.000275473 -0.000155938 2.75285
0.52 0.015 -0.0296887 -0.0002956 -0.00015451 2.72513
0.525 0.015 -0.0293873 -0.000315218 -0.000152983 2.69588
0.53 0.015 -0.0290679 -0.000334282 -0.00015136 2.66513
0.535 0.015 -0.0287313 -0.000352751 -0.000149642 2.63294
0.54 0.015 -0.0283779 -0.000370585 -0.000147834 2.59936
0.545 0.015 -0.0280083 -0.000387748 -0.000145938 2.56444
0.55 0.015 -0.0276233 -0.000404204 -0.000143958 2.52825
0.555 0.015 -0.0272236 -0.000419922 -0.000141897 2.49085
0.56 0.015 -0.0268097 -0.000434873 -0.00013976 2.45229
0.565 0.015 -0.0263825 -0.00044903 -0.00013755 2.41264
0.57 0.015 -0.0259427 -0.00046237 -0.000135271 2.37198
0.575 0.015 -0.0254911 -0.000474873 -0.000132928 2.33035
0.58 0.015 -0.0250285 -0.000486521 -0.000130524 2.28783
0.585 0.015 -0.0245557 -0.0004973 -0.000128064 2.24449
0.59 0.015 -0.0240735 -0.000507198 -0.000125553 2.2004
0.595 0.015 -0.0235827 -0.000516208 -0.000122994 2.15562
0.6 0.015 -0.0230841 -0.000524325 -0.000120392 2.11023
0.605 0.015 -0.0225786 -0.000531545 -0.000117752 2.0643
0.61 0.015 -0.0220671 -0.000537871 -0.000115078 2.01789
0.615 0.015 -0.0215502 -0.000543305 -0.000112374 1.97107
0.62 0.015 -0.021029 -0.000547853 -0.000109646 1.92392
0.625 0.015 -0.0205041 -0.000551526 -0.000106897 1.87649
0.63 0.015 -0.0199763 -0.000554335 -0.000104132 1.82886
0.635 0.015 -0.0194465 -0.000556293 -0.000101355 1.7811
0.64 0.015 -0.0189155 -0.000557418 -9.85698e-05 1.73325
0.645 0.015 -0.018384 -0.000557727 -9.57815e-05 1.6854
0.65 0.015 -0.0178527 -0.000557243 -9.29936e-05 1.6376
0.655 0.015 -0.0173223 -0.000555987 -9.021e-05 1.5899
0.66 0.015 -0.0167936 -0.000553983 -8.74346e-05 1.54237
0.665 0.015 -0.0162673 -0.000551257 -8.4671e-05 1.49507
0.67 0.015 -0.0157439 -0.000547838 -8.19229e-05 1.44804
0.675 0.015 -0.0152242 -0.000543752 -7.91935e-05 1.40134
0.68 0.015 -0.0147087 -0.00053903 -7.64861e-05 1.35502
0.685 0.015 -0.0141979 -0.000533701 -7.38039e-05 1.30913
0.69 0.015 -0.0136925 -0.000527798 -7.11497e-05 1.26371
0.695 0.015 -0.013193 -0.000521351 -6.85265e-05 1.2188
0.7 0.015 -0.0126998 -0.000514392 -6.59368e-05 1.17445
0.705 0.015 -0.0122134 -0.000506953 -6.33832e-05 1.13069
0.71 0.015 -0.0117342 -0.000499067 -6.08678e-05 1.08756
0.715 0.015 -0.0112626 -0.000490765 -5.8393e-05 1.0451
0.72 0.015 -0.010799 -0.000482079 -5.59607e-05 1.00334
0.725 0.015 -0.0103438 -0.00047304 -5.35726e-05 0.962293
0.73 0.015 -0.00989722 -0.00046368 -5.12307e-05 0.922003
0.735 0.015 -0.00945959 -0.000454028 -4.89362e-05 0.882488
0.74 0.015 -0.00903115 -0.000444114 -4.66907e-05 0.843773
0.745 0.015 -0.00861214 -0.000433967 -4.44954e-05 0.805877
0.75 0.015 -0.00820276 -0.000423615 -4.23513e-05 0.768818
0.755 0.015 -0.00780321 -0.000413083 -4.02595e-05 0.732614
0.76 0.015 -0.00741363 -0.000402398 -3.82207e-05 0.697277
0.765 0.015 -0.00703416 -0.000391585 -3.62357e-05 0.66282
0.77 0.015 -0.00666491 -0.000380667 -3.43051e-05 0.629255
0.775 0.015 -0.00630598 -0.000369666 -3.24292e-05 0.59659
0.78 0.015 -0.00595744 -0.000358603 -3.06085e-05 0.564833
0.785 0.015 -0.00561933 -0.000347499 -2.88433e-05 0.533988
0.79 0.015 -0.0052917 -0.000336371 -2.71337e-05 0.504061
0.795 0.015 -0.00497456 -0.000325237 -2.54797e-05 0.475055
0.8 0.015 -0.00466792 -0.000314114 -2.38814e-05 0.44697
0.805 0.015 -0.00437177 -0.000303015 -2.23386e-05 0.419808
0.81 0.015 -0.00408608 -0.000291955 -2.08512e-05 0.393567
0.815 0.015 -0.00381081 -0.000280946 -1.94191e-05 0.368247
0.82 0.015 -0.00354592 -0.000269999 -1.80418e-05 0.343844
0.825 0.015 -0.00329135 -0.000259125 -1.67191e-05 0.320355