Title=" Lid Driven Flow"
VARIABLES="X","Y","U","V","psi","xi"
ZONE T= "BOX", I= 257, J=257, F=POINT
0 0 0 0 -306.123 0
0.00390625 0 0 0 0 0
0.0078125 0 0 0 0 0
0.0117188 0 0 0 0 -416.842
0.015625 0 0 0 0 -326.383
0.0195313 0 0 0 0 -259.788
0.0234375 0 0 0 0 -212.807
0.0273438 0 0 0 0 -179.519
0.03125 0 0 0 0 -155.447
0.0351563 0 0 0 0 -137.572
0.0390625 0 0 0 0 -123.925
0.0429688 0 0 0 0 -113.223
0.046875 0 0 0 0 -104.62
0.0507813 0 0 0 0 -97.5529
0.0546875 0 0 0 0 -91.6348
0.0585938 0 0 0 0 -86.5974
0.0625 0 0 0 0 -82.2489
0.0664063 0 0 0 0 -78.4497
0.0703125 0 0 0 0 -75.0957
0.0742188 0 0 0 0 -72.1081
0.078125 0 0 0 0 -69.426
0.0820313 0 0 0 0 -67.0017
0.0859375 0 0 0 0 -64.7971
0.0898438 0 0 0 0 -62.7815
0.09375 0 0 0 0 -60.9299
0.0976563 0 0 0 0 -59.2216
0.101563 0 0 0 0 -57.6393
0.105469 0 0 0 0 -56.1686
0.109375 0 0 0 0 -54.7972
0.113281 0 0 0 0 -53.5145
0.117188 0 0 0 0 -52.3117
0.121094 0 0 0 0 -51.1809
0.125 0 0 0 0 -50.1153
0.128906 0 0 0 0 -49.109
0.132813 0 0 0 0 -48.1568
0.136719 0 0 0 0 -47.2541
0.140625 0 0 0 0 -46.3969
0.144531 0 0 0 0 -45.5815
0.148438 0 0 0 0 -44.8047
0.152344 0 0 0 0 -44.0636
0.15625 0 0 0 0 -43.3555
0.160156 0 0 0 0 -42.6782
0.164063 0 0 0 0 -42.0295
0.167969 0 0 0 0 -41.4075
0.171875 0 0 0 0 -40.8103
0.175781 0 0 0 0 -40.2365
0.179688 0 0 0 0 -39.6846
0.183594 0 0 0 0 -39.1531
0.1875 0 0 0 0 -38.641
0.191406 0 0 0 0 -38.147
0.195313 0 0 0 0 -37.6701
0.199219 0 0 0 0 -37.2093
0.203125 0 0 0 0 -36.7638
0.207031 0 0 0 0 -36.3328
0.210938 0 0 0 0 -35.9154
0.214844 0 0 0 0 -35.5109
0.21875 0 0 0 0 -35.1188
0.222656 0 0 0 0 -34.7383
0.226563 0 0 0 0 -34.3689
0.230469 0 0 0 0 -34.01
0.234375 0 0 0 0 -33.6612
0.238281 0 0 0 0 -33.322
0.242188 0 0 0 0 -32.9919
0.246094 0 0 0 0 -32.6704
0.25 0 0 0 0 -32.3573
0.253906 0 0 0 0 -32.0522
0.257813 0 0 0 0 -31.7546
0.261719 0 0 0 0 -31.4643
0.265625 0 0 0 0 -31.1809
0.269531 0 0 0 0 -30.9042
0.273438 0 0 0 0 -30.6338
0.277344 0 0 0 0 -30.3696
0.28125 0 0 0 0 -30.1111
0.285156 0 0 0 0 -29.8583
0.289063 0 0 0 0 -29.6108
0.292969 0 0 0 0 -29.3685
0.296875 0 0 0 0 -29.1311
0.300781 0 0 0 0 -28.8985
0.304688 0 0 0 0 -28.6704
0.308594 0 0 0 0 -28.4466
0.3125 0 0 0 0 -28.2271
0.316406 0 0 0 0 -28.0115
0.320313 0 0 0 0 -27.7998
0.324219 0 0 0 0 -27.5918
0.328125 0 0 0 0 -27.3874
0.332031 0 0 0 0 -27.1863
0.335938 0 0 0 0 -26.9885
0.339844 0 0 0 0 -26.7938
0.34375 0 0 0 0 -26.6021
0.347656 0 0 0 0 -26.4132
0.351563 0 0 0 0 -26.2271
0.355469 0 0 0 0 -26.0436
0.359375 0 0 0 0 -25.8626
0.363281 0 0 0 0 -25.6839
0.367188 0 0 0 0 -25.5076
0.371094 0 0 0 0 -25.3334
0.375 0 0 0 0 -25.1612
0.378906 0 0 0 0 -24.991
0.382813 0 0 0 0 -24.8227
0.386719 0 0 0 0 -24.6561
0.390625 0 0 0 0 -24.4912
0.394531 0 0 0 0 -24.3279
0.398438 0 0 0 0 -24.166
0.402344 0 0 0 0 -24.0055
0.40625 0 0 0 0 -23.8463
0.410156 0 0 0 0 -23.6883
0.414063 0 0 0 0 -23.5315
0.417969 0 0 0 0 -23.3758
0.421875 0 0 0 0 -23.221
0.425781 0 0 0 0 -23.0671
0.429688 0 0 0 0 -22.9141
0.433594 0 0 0 0 -22.7618
0.4375 0 0 0 0 -22.6102
0.441406 0 0 0 0 -22.4593
0.445313 0 0 0 0 -22.3089
0.449219 0 0 0 0 -22.159
0.453125 0 0 0 0 -22.0096
0.457031 0 0 0 0 -21.8606
0.460938 0 0 0 0 -21.712
0.464844 0 0 0 0 -21.5637
0.46875 0 0 0 0 -21.4157
0.472656 0 0 0 0 -21.2679
0.476563 0 0 0 0 -21.1204
0.480469 0 0 0 0 -20.973
0.484375 0 0 0 0 -20.8258
0.488281 0 0 0 0 -20.6787
0.492188 0 0 0 0 -20.5318
0.496094 0 0 0 0 -20.385
0.5 0 0 0 0 -20.2384
0.503906 0 0 0 0 -20.0919
0.507813 0 0 0 0 -19.9456
0.511719 0 0 0 0 -19.7994
0.515625 0 0 0 0 -19.6534
0.519531 0 0 0 0 -19.5077
0.523438 0 0 0 0 -19.3623
0.527344 0 0 0 0 -19.2171
0.53125 0 0 0 0 -19.0724
0.535156 0 0 0 0 -18.9281
0.539063 0 0 0 0 -18.7843
0.542969 0 0 0 0 -18.6411
0.546875 0 0 0 0 -18.4986
0.550781 0 0 0 0 -18.3568
0.554688 0 0 0 0 -18.2159
0.558594 0 0 0 0 -18.076
0.5625 0 0 0 0 -17.9371
0.566406 0 0 0 0 -17.7994
0.570313 0 0 0 0 -17.6631
0.574219 0 0 0 0 -17.5281
0.578125 0 0 0 0 -17.3948
0.582031 0 0 0 0 -17.2632
0.585938 0 0 0 0 -17.1334
0.589844 0 0 0 0 -17.0057
0.59375 0 0 0 0 -16.8801
0.597656 0 0 0 0 -16.7568
0.601563 0 0 0 0 -16.636
0.605469 0 0 0 0 -16.5179
0.609375 0 0 0 0 -16.4025
0.613281 0 0 0 0 -16.2901
0.617188 0 0 0 0 -16.1809
0.621094 0 0 0 0 -16.0748
0.625 0 0 0 0 -15.9723
0.628906 0 0 0 0 -15.8733
0.632813 0 0 0 0 -15.778
0.636719 0 0 0 0 -15.6867
0.640625 0 0 0 0 -15.5993
0.644531 0 0 0 0 -15.5161
0.648438 0 0 0 0 -15.4373
0.652344 0 0 0 0 -15.3628
0.65625 0 0 0 0 -15.2929
0.660156 0 0 0 0 -15.2276
0.664063 0 0 0 0 -15.1671
0.667969 0 0 0 0 -15.1115
0.671875 0 0 0 0 -15.0608
0.675781 0 0 0 0 -15.0151
0.679688 0 0 0 0 -14.9744
0.683594 0 0 0 0 -14.939
0.6875 0 0 0 0 -14.9087
0.691406 0 0 0 0 -14.8836
0.695313 0 0 0 0 -14.8638
0.699219 0 0 0 0 -14.8493
0.703125 0 0 0 0 -14.8401
0.707031 0 0 0 0 -14.8362
0.710938 0 0 0 0 -14.8376
0.714844 0 0 0 0 -14.8443
0.71875 0 0 0 0 -14.8563
0.722656 0 0 0 0 -14.8736
0.726563 0 0 0 0 -14.8961
0.730469 0 0 0 0 -14.9239
0.734375 0 0 0 0 -14.9569
0.738281 0 0 0 0 -14.9951
0.742188 0 0 0 0 -15.0384
0.746094 0 0 0 0 -15.087
0.75 0 0 0 0 -15.1407
0.753906 0 0 0 0 -15.1995
0.757813 0 0 0 0 -15.2636
0.761719 0 0 0 0 -15.3328
0.765625 0 0 0 0 -15.4074
0.769531 0 0 0 0 -15.4872
0.773438 0 0 0 0 -15.5725
0.777344 0 0 0 0 -15.6633
0.78125 0 0 0 0 -15.7598
0.785156 0 0 0 0 -15.8621
0.789063 0 0 0 0 -15.9706
0.792969 0 0 0 0 -16.0853
0.796875 0 0 0 0 -16.2068
0.800781 0 0 0 0 -16.3353
0.804688 0 0 0 0 -16.4712
0.808594 0 0 0 0 -16.6151
0.8125 0 0 0 0 -16.7675
0.816406 0 0 0 0 -16.929
0.820313 0 0 0 0 -17.1004
0.824219 0 0 0 0 -17.2825
0.828125 0 0 0 0 -17.4762
0.832031 0 0 0 0 -17.6826
0.835938 0 0 0 0 -17.9027
0.839844 0 0 0 0 -18.138
0.84375 0 0 0 0 -18.3897
0.847656 0 0 0 0 -18.6594
0.851563 0 0 0 0 -18.949
0.855469 0 0 0 0 -19.2602
0.859375 0 0 0 0 -19.5952
0.863281 0 0 0 0 -19.9563
0.867188 0 0 0 0 -20.3459
0.871094 0 0 0 0 -20.7668
0.875 0 0 0 0 -21.222
0.878906 0 0 0 0 -21.7147
0.882813 0 0 0 0 -22.2484
0.886719 0 0 0 0 -22.827
0.890625 0 0 0 0 -23.4545
0.894531 0 0 0 0 -24.1356
0.898438 0 0 0 0 -24.875
0.902344 0 0 0 0 -25.6782
0.90625 0 0 0 0 -26.5509
0.910156 0 0 0 0 -27.4995
0.914063 0 0 0 0 -28.531
0.917969 0 0 0 0 -29.6532
0.921875 0 0 0 0 -30.8745
0.925781 0 0 0 0 -32.2049
0.929688 0 0 0 0 -33.6553
0.933594 0 0 0 0 -35.2386
0.9375 0 0 0 0 -36.97
0.941406 0 0 0 0 -38.8674
0.945313 0 0 0 0 -40.9531
0.949219 0 0 0 0 -43.2545
0.953125 0 0 0 0 -45.8067
0.957031 0 0 0 0 -48.6554
0.960938 0 0 0 0 -51.8616
0.964844 0 0 0 0 -55.5086
0.96875 0 0 0 0 -59.7131
0.972656 0 0 0 0 -64.6437
0.976563 0 0 0 0 -70.5519
0.980469 0 0 0 0 -77.8292
0.984375 0 0 0 0 -87.1175
0.988281 0 0 0 0 -99.5457
0.992188 0 0 0 0 -117.301
0.996094 0 0 0 0 -145.191
1 0 0 0 0 -195.752
0 0.00390625 0 0 0 0
0.00390625 0.00390625 0 0 0 0
0.0078125 0.00390625 0 0 0 -0.0003265
0.0117188 0.00390625 0 0 0 -0.000933392
0.015625 0.00390625 0 0 0 -0.00146936
0.0195313 0.00390625 0 0 0 -0.00172618
0.0234375 0.00390625 0 0 0 -0.00159875
0.0273438 0.00390625 0 0 0 -0.00104263
0.03125 0.00390625 0 0 0 -4.72541e-05
0.0351563 0.00390625 0 0 0 0.00137916
0.0390625 0.00390625 0 0 0 0.00321816
0.0429688 0.00390625 0 0 0 0.00544583
0.046875 0.00390625 0 0 0 0.00803566
0.0507813 0.00390625 0 0 0 0.0109602
0.0546875 0.00390625 0 0 0 0.0141922
0.0585938 0.00390625 0 0 0 0.0177051
0.0625 0.00390625 0 0 0 0.0214733
0.0664063 0.00390625 0 0 0 0.0254728
0.0703125 0.00390625 0 0 0 0.0296809
0.0742188 0.00390625 0 0 0 0.0340763
0.078125 0.00390625 0 0 0 0.0386394
0.0820313 0.00390625 0 0 0 0.043352
0.0859375 0.00390625 0 0 0 0.048197
0.0898438 0.00390625 0 0 0 0.0531591
0.09375 0.00390625 0 0 0 0.0582241
0.0976563 0.00390625 0 0 0 0.0633789
0.101563 0.00390625 0 0 0 0.0686116
0.105469 0.00390625 0 0 0 0.0739115
0.109375 0.00390625 0 0 0 0.0792686
0.113281 0.00390625 0 0 0 0.0846742
0.117188 0.00390625 0 0 0 0.09012
0.121094 0.00390625 0 0 0 0.0955988
0.125 0.00390625 0 0 0 0.101104
0.128906 0.00390625 0 0 0 0.10663
0.132813 0.00390625 0 0 0 0.112171
0.136719 0.00390625 0 0 0 0.117722
0.140625 0.00390625 0 0 0 0.12328
0.144531 0.00390625 0 0 0 0.128839
0.148438 0.00390625 0 0 0 0.134398
0.152344 0.00390625 0 0 0 0.139953
0.15625 0.00390625 0 0 0 0.145501
0.160156 0.00390625 0 0 0 0.151039
0.164063 0.00390625 0 0 0 0.156566
0.167969 0.00390625 0 0 0 0.16208
0.171875 0.00390625 0 0 0 0.167579
0.175781 0.00390625 0 0 0 0.173061
0.179688 0.00390625 0 0 0 0.178526
0.183594 0.00390625 0 0 0 0.183971
0.1875 0.00390625 0 0 0 0.189396
0.191406 0.00390625 0 0 0 0.194799
0.195313 0.00390625 0 0 0 0.20018
0.199219 0.00390625 0 0 0 0.205538
0.203125 0.00390625 0 0 0 0.210872
0.207031 0.00390625 0 0 0 0.216181
0.210938 0.00390625 0 0 0 0.221464
0.214844 0.00390625 0 0 0 0.226721
0.21875 0.00390625 0 0 0 0.231951
0.222656 0.00390625 0 0 0 0.237153
0.226563 0.00390625 0 0 0 0.242327
0.230469 0.00390625 0 0 0 0.247471
0.234375 0.00390625 0 0 0 0.252585
0.238281 0.00390625 0 0 0 0.257669
0.242188 0.00390625 0 0 0 0.262721
0.246094 0.00390625 0 0 0 0.26774
0.25 0.00390625 0 0 0 0.272726
0.253906 0.00390625 0 0 0 0.277679
0.257813 0.00390625 0 0 0 0.282596
0.261719 0.00390625 0 0 0 0.287478
0.265625 0.00390625 0 0 0 0.292323
0.269531 0.00390625 0 0 0 0.29713
0.273438 0.00390625 0 0 0 0.301899
0.277344 0.00390625 0 0 0 0.306628
0.28125 0.00390625 0 0 0 0.311316
0.285156 0.00390625 0 0 0 0.315963
0.289063 0.00390625 0 0 0 0.320566
0.292969 0.00390625 0 0 0 0.325126
0.296875 0.00390625 0 0 0 0.32964
0.300781 0.00390625 0 0 0 0.334108
0.304688 0.00390625 0 0 0 0.338528
0.308594 0.00390625 0 0 0 0.342899
0.3125 0.00390625 0 0 0 0.347219
0.316406 0.00390625 0 0 0 0.351488
0.320313 0.00390625 0 0 0 0.355705
0.324219 0.00390625 0 0 0 0.359867
0.328125 0.00390625 0 0 0 0.363973
0.332031 0.00390625 0 0 0 0.368022
0.335938 0.00390625 0 0 0 0.372012
0.339844 0.00390625 0 0 0 0.375942
0.34375 0.00390625 0 0 0 0.379811
0.347656 0.00390625 0 0 0 0.383616
0.351563 0.00390625 0 0 0 0.387357
0.355469 0.00390625 0 0 0 0.391031
0.359375 0.00390625 0 0 0 0.394638
0.363281 0.00390625 0 0 0 0.398175
0.367188 0.00390625 0 0 0 0.401641
0.371094 0.00390625 0 0 0 0.405034
0.375 0.00390625 0 0 0 0.408353
0.378906 0.00390625 0 0 0 0.411596
0.382813 0.00390625 0 0 0 0.414761
0.386719 0.00390625 0 0 0 0.417846
0.390625 0.00390625 0 0 0 0.420851
0.394531 0.00390625 0 0 0 0.423773
0.398438 0.00390625 0 0 0 0.42661
0.402344 0.00390625 0 0 0 0.429361
0.40625 0.00390625 0 0 0 0.432024
0.410156 0.00390625 0 0 0 0.434598
0.414063 0.00390625 0 0 0 0.43708
0.417969 0.00390625 0 0 0 0.439469
0.421875 0.00390625 0 0 0 0.441764
0.425781 0.00390625 0 0 0 0.443962
0.429688 0.00390625 0 0 0 0.446062
0.433594 0.00390625 0 0 0 0.448062
0.4375 0.00390625 0 0 0 0.449961
0.441406 0.00390625 0 0 0 0.451757
0.445313 0.00390625 0 0 0 0.453448
0.449219 0.00390625 0 0 0 0.455033
0.453125 0.00390625 0 0 0 0.45651
0.457031 0.00390625 0 0 0 0.457878
0.460938 0.00390625 0 0 0 0.459135
0.464844 0.00390625 0 0 0 0.46028
0.46875 0.00390625 0 0 0 0.461311
0.472656 0.00390625 0 0 0 0.462227
0.476563 0.00390625 0 0 0 0.463027
0.480469 0.00390625 0 0 0 0.463709
0.484375 0.00390625 0 0 0 0.464272
0.488281 0.00390625 0 0 0 0.464715
0.492188 0.00390625 0 0 0 0.465037
0.496094 0.00390625 0 0 0 0.465236
0.5 0.00390625 0 0 0 0.465312
0.503906 0.00390625 0 0 0 0.465263
0.507813 0.00390625 0 0 0 0.465089
0.511719 0.00390625 0 0 0 0.464789
0.515625 0.00390625 0 0 0 0.464362
0.519531 0.00390625 0 0 0 0.463807
0.523438 0.00390625 0 0 0 0.463124
0.527344 0.00390625 0 0 0 0.462312
0.53125 0.00390625 0 0 0 0.461371
0.535156 0.00390625 0 0 0 0.4603
0.539063 0.00390625 0 0 0 0.4591
0.542969 0.00390625 0 0 0 0.457769
0.546875 0.00390625 0 0 0 0.456307
0.550781 0.00390625 0 0 0 0.454716
0.554688 0.00390625 0 0 0 0.452994
0.558594 0.00390625 0 0 0 0.451142
0.5625 0.00390625 0 0 0 0.44916
0.566406 0.00390625 0 0 0 0.447049
0.570313 0.00390625 0 0 0 0.444809
0.574219 0.00390625 0 0 0 0.44244
0.578125 0.00390625 0 0 0 0.439943
0.582031 0.00390625 0 0 0 0.437319
0.585938 0.00390625 0 0 0 0.434569
0.589844 0.00390625 0 0 0 0.431693
0.59375 0.00390625 0 0 0 0.428694
0.597656 0.00390625 0 0 0 0.425571
0.601563 0.00390625 0 0 0 0.422326
0.605469 0.00390625 0 0 0 0.418961
0.609375 0.00390625 0 0 0 0.415477
0.613281 0.00390625 0 0 0 0.411875
0.617188 0.00390625 0 0 0 0.408158
0.621094 0.00390625 0 0 0 0.404326
0.625 0.00390625 0 0 0 0.400383
0.628906 0.00390625 0 0 0 0.396329
0.632813 0.00390625 0 0 0 0.392167
0.636719 0.00390625 0 0 0 0.387899
0.640625 0.00390625 0 0 0 0.383528
0.644531 0.00390625 0 0 0 0.379055
0.648438 0.00390625 0 0 0 0.374483
0.652344 0.00390625 0 0 0 0.369814
0.65625 0.00390625 0 0 0 0.365051
0.660156 0.00390625 0 0 0 0.360197
0.664063 0.00390625 0 0 0 0.355254
0.667969 0.00390625 0 0 0 0.350226
0.671875 0.00390625 0 0 0 0.345114
0.675781 0.00390625 0 0 0 0.339922
0.679688 0.00390625 0 0 0 0.334653
0.683594 0.00390625 0 0 0 0.32931
0.6875 0.00390625 0 0 0 0.323896
0.691406 0.00390625 0 0 0 0.318414
0.695313 0.00390625 0 0 0 0.312866
0.699219 0.00390625 0 0 0 0.307258
0.703125 0.00390625 0 0 0 0.301591
0.707031 0.00390625 0 0 0 0.295868
0.710938 0.00390625 0 0 0 0.290094
0.714844 0.00390625 0 0 0 0.284272
0.71875 0.00390625 0 0 0 0.278404
0.722656 0.00390625 0 0 0 0.272494
0.726563 0.00390625 0 0 0 0.266546
0.730469 0.00390625 0 0 0 0.260563
0.734375 0.00390625 0 0 0 0.254548
0.738281 0.00390625 0 0 0 0.248505
0.742188 0.00390625 0 0 0 0.242437
0.746094 0.00390625 0 0 0 0.236348
0.75 0.00390625 0 0 0 0.23024
0.753906 0.00390625 0 0 0 0.224118
0.757813 0.00390625 0 0 0 0.217985
0.761719 0.00390625 0 0 0 0.211845
0.765625 0.00390625 0 0 0 0.2057
0.769531 0.00390625 0 0 0 0.199554
0.773438 0.00390625 0 0 0 0.193412
0.777344 0.00390625 0 0 0 0.187275
0.78125 0.00390625 0 0 0 0.181148
0.785156 0.00390625 0 0 0 0.175035
0.789063 0.00390625 0 0 0 0.168938
0.792969 0.00390625 0 0 0 0.162862
0.796875 0.00390625 0 0 0 0.15681
0.800781 0.00390625 0 0 0 0.150786
0.804688 0.00390625 0 0 0 0.144793
0.808594 0.00390625 0 0 0 0.138836
0.8125 0.00390625 0 0 0 0.132918
0.816406 0.00390625 0 0 0 0.127043
0.820313 0.00390625 0 0 0 0.121215
0.824219 0.00390625 0 0 0 0.115439
0.828125 0.00390625 0 0 0 0.109719
0.832031 0.00390625 0 0 0 0.104059
0.835938 0.00390625 0 0 0 0.098463
0.839844 0.00390625 0 0 0 0.0929367
0.84375 0.00390625 0 0 0 0.0874847
0.847656 0.00390625 0 0 0 0.0821121
0.851563 0.00390625 0 0 0 0.0768239
0.855469 0.00390625 0 0 0 0.0716258
0.859375 0.00390625 0 0 0 0.0665234
0.863281 0.00390625 0 0 0 0.0615226
0.867188 0.00390625 0 0 0 0.0566295
0.871094 0.00390625 0 0 0 0.0518506
0.875 0.00390625 0 0 0 0.0471925
0.878906 0.00390625 0 0 0 0.0426621
0.882813 0.00390625 0 0 0 0.0382666
0.886719 0.00390625 0 0 0 0.0340134
0.890625 0.00390625 0 0 0 0.0299104
0.894531 0.00390625 0 0 0 0.0259654
0.898438 0.00390625 0 0 0 0.0221868
0.902344 0.00390625 0 0 0 0.0185829
0.90625 0.00390625 0 0 0 0.0151624
0.910156 0.00390625 0 0 0 0.0119342
0.914063 0.00390625 0 0 0 0.00890725
0.917969 0.00390625 0 0 0 0.00609051
0.921875 0.00390625 0 0 0 0.003493
0.925781 0.00390625 0 0 0 0.00112364
0.929688 0.00390625 0 0 0 -0.00100888
0.933594 0.00390625 0 0 0 -0.00289621
0.9375 0.00390625 0 0 0 -0.00453055
0.941406 0.00390625 0 0 0 -0.00590483
0.945313 0.00390625 0 0 0 -0.00701302
0.949219 0.00390625 0 0 0 -0.00785047
0.953125 0.00390625 0 0 0 -0.00841429
0.957031 0.00390625 0 0 0 -0.00870401
0.960938 0.00390625 0 0 0 -0.00872218
0.964844 0.00390625 0 0 0 -0.00847539
0.96875 0.00390625 0 0 0 -0.00797547
0.972656 0.00390625 0 0 0 -0.00724112
0.976563 0.00390625 0 0 0 -0.00630022
0.980469 0.00390625 0 0 0 -0.00519293
0.984375 0.00390625 0 0 0 -0.00397605
0.988281 0.00390625 0 0 0 -0.00272893
0.992188 0.00390625 0 0 0 -0.00156078
0.996094 0.00390625 0 0 0 -0.000616087
1 0.00390625 0 0 0 -6.2577e-05
0 0.0078125 0 0 -6.2577e-05 0
0.00390625 0.0078125 0 0 0 -0.0003265
0.0078125 0.0078125 9.12083e-07 -9.11516e-07 2.49102e-09 -0.000280685
0.0117188 0.0078125 2.35227e-06 -1.11608e-06 7.12132e-09 -0.000235501
0.015625 0.0078125 3.3994e-06 -7.74195e-07 1.12106e-08 -0.000131523
0.0195313 0.0078125 3.4751e-06 -1.26328e-07 1.31701e-08 0.000139099
0.0234375 0.0078125 2.25149e-06 6.67579e-07 1.2198e-08 0.000660408
0.0273438 0.0078125 -4.33641e-07 1.5152e-06 7.95522e-09 0.00148436
0.03125 0.0078125 -4.63766e-06 2.36511e-06 3.6121e-10 0.00263735
0.0351563 0.0078125 -1.03531e-05 3.18897e-06 -1.05214e-08 0.004128
0.0390625 0.0078125 -1.7533e-05 3.97145e-06 -2.45518e-08 0.00595319
0.0429688 0.0078125 -2.61072e-05 4.70469e-06 -4.15476e-08 0.00810226
0.046875 0.0078125 -3.59925e-05 5.38526e-06 -6.13065e-08 0.01056
0.0507813 0.0078125 -4.70992e-05 6.01237e-06 -8.36193e-08 0.0133084
0.0546875 0.0078125 -5.93355e-05 6.58685e-06 -1.08278e-07 0.0163281
0.0585938 0.0078125 -7.26103e-05 7.11051e-06 -1.35079e-07 0.0195991
0.0625 0.0078125 -8.68348e-05 7.58573e-06 -1.63828e-07 0.0231018
0.0664063 0.0078125 -0.000101924 8.01523e-06 -1.94342e-07 0.0268165
0.0703125 0.0078125 -0.000117796 8.40187e-06 -2.26448e-07 0.0307246
0.0742188 0.0078125 -0.000134377 8.74854e-06 -2.59982e-07 0.0348083
0.078125 0.0078125 -0.000151592 9.05814e-06 -2.94796e-07 0.0390506
0.0820313 0.0078125 -0.000169378 9.33346e-06 -3.3075e-07 0.0434356
0.0859375 0.0078125 -0.00018767 9.57719e-06 -3.67715e-07 0.0479485
0.0898438 0.0078125 -0.000206413 9.79189e-06 -4.05574e-07 0.0525755
0.09375 0.0078125 -0.000225553 9.98e-06 -4.44217e-07 0.0573037
0.0976563 0.0078125 -0.000245042 1.01438e-05 -4.83545e-07 0.0621213
0.101563 0.0078125 -0.000264835 1.02854e-05 -5.23468e-07 0.0670173
0.105469 0.0078125 -0.000284892 1.04069e-05 -5.63903e-07 0.0719816
0.109375 0.0078125 -0.000305175 1.051e-05 -6.04775e-07 0.0770052
0.113281 0.0078125 -0.000325652 1.05966e-05 -6.46017e-07 0.0820795
0.117188 0.0078125 -0.00034629 1.06681e-05 -6.87565e-07 0.0871969
0.121094 0.0078125 -0.000367063 1.07261e-05 -7.29366e-07 0.0923503
0.125 0.0078125 -0.000387945 1.07718e-05 -7.71368e-07 0.0975335
0.128906 0.0078125 -0.000408912 1.08066e-05 -8.13526e-07 0.102741
0.132813 0.0078125 -0.000429946 1.08316e-05 -8.55801e-07 0.107967
0.136719 0.0078125 -0.000451027 1.08477e-05 -8.98154e-07 0.113207
0.140625 0.0078125 -0.000472139 1.08559e-05 -9.40555e-07 0.118456
0.144531 0.0078125 -0.000493266 1.08571e-05 -9.82974e-07 0.123712
0.148438 0.0078125 -0.000514396 1.0852e-05 -1.02538e-06 0.12897
0.152344 0.0078125 -0.000535516 1.08413e-05 -1.06776e-06 0.134228
0.15625 0.0078125 -0.000556616 1.08255e-05 -1.11009e-06 0.139482
0.160156 0.0078125 -0.000577687 1.08053e-05 -1.15235e-06 0.14473
0.164063 0.0078125 -0.000598719 1.07812e-05 -1.19452e-06 0.14997
0.167969 0.0078125 -0.000619704 1.07534e-05 -1.23658e-06 0.1552
0.171875 0.0078125 -0.000640637 1.07225e-05 -1.27854e-06 0.160418
0.175781 0.0078125 -0.000661511 1.06888e-05 -1.32036e-06 0.165623
0.179688 0.0078125 -0.00068232 1.06525e-05 -1.36205e-06 0.170812
0.183594 0.0078125 -0.000703059 1.06138e-05 -1.4036e-06 0.175984
0.1875 0.0078125 -0.000723723 1.0573e-05 -1.44499e-06 0.181139
0.191406 0.0078125 -0.000744309 1.05303e-05 -1.48621e-06 0.186275
0.195313 0.0078125 -0.000764812 1.04858e-05 -1.52727e-06 0.191391
0.199219 0.0078125 -0.00078523 1.04396e-05 -1.56814e-06 0.196487
0.203125 0.0078125 -0.000805557 1.03918e-05 -1.60884e-06 0.20156
0.207031 0.0078125 -0.000825791 1.03424e-05 -1.64934e-06 0.206611
0.210938 0.0078125 -0.00084593 1.02916e-05 -1.68965e-06 0.211638
0.214844 0.0078125 -0.000865969 1.02394e-05 -1.72976e-06 0.216641
0.21875 0.0078125 -0.000885906 1.01857e-05 -1.76966e-06 0.221618
0.222656 0.0078125 -0.000905739 1.01306e-05 -1.80935e-06 0.22657
0.226563 0.0078125 -0.000925463 1.00741e-05 -1.84882e-06 0.231495
0.230469 0.0078125 -0.000945077 1.00161e-05 -1.88807e-06 0.236393
0.234375 0.0078125 -0.000964577 9.9567e-06 -1.92709e-06 0.241262
0.238281 0.0078125 -0.00098396 9.89579e-06 -1.96587e-06 0.246102
0.242188 0.0078125 -0.00100322 9.83335e-06 -2.00442e-06 0.250913
0.246094 0.0078125 -0.00102236 9.76933e-06 -2.04271e-06 0.255693
0.25 0.0078125 -0.00104138 9.7037e-06 -2.08075e-06 0.260442
0.253906 0.0078125 -0.00106027 9.63639e-06 -2.11854e-06 0.265159
0.257813 0.0078125 -0.00107902 9.56735e-06 -2.15606e-06 0.269842
0.261719 0.0078125 -0.00109763 9.49652e-06 -2.1933e-06 0.274492
0.265625 0.0078125 -0.00111611 9.42386e-06 -2.23027e-06 0.279106
0.269531 0.0078125 -0.00113445 9.34929e-06 -2.26694e-06 0.283685
0.273438 0.0078125 -0.00115263 9.27276e-06 -2.30333e-06 0.288228
0.277344 0.0078125 -0.00117067 9.1942e-06 -2.3394e-06 0.292732
0.28125 0.0078125 -0.00118855 9.11356e-06 -2.37517e-06 0.297198
0.285156 0.0078125 -0.00120627 9.03077e-06 -2.41062e-06 0.301624
0.289063 0.0078125 -0.00122383 8.94578e-06 -2.44575e-06 0.30601
0.292969 0.0078125 -0.00124122 8.85851e-06 -2.48053e-06 0.310353
0.296875 0.0078125 -0.00125843 8.76891e-06 -2.51497e-06 0.314654
0.300781 0.0078125 -0.00127547 8.67693e-06 -2.54906e-06 0.31891
0.304688 0.0078125 -0.00129233 8.58249e-06 -2.58278e-06 0.323121
0.308594 0.0078125 -0.001309 8.48555e-06 -2.61613e-06 0.327285
0.3125 0.0078125 -0.00132549 8.38605e-06 -2.64909e-06 0.331402
0.316406 0.0078125 -0.00134177 8.28393e-06 -2.68166e-06 0.33547
0.320313 0.0078125 -0.00135785 8.17914e-06 -2.71383e-06 0.339487
0.324219 0.0078125 -0.00137373 8.07163e-06 -2.74558e-06 0.343453
0.328125 0.0078125 -0.00138939 7.96134e-06 -2.77691e-06 0.347366
0.332031 0.0078125 -0.00140484 7.84823e-06 -2.8078e-06 0.351225
0.335938 0.0078125 -0.00142006 7.73225e-06 -2.83825e-06 0.355029
0.339844 0.0078125 -0.00143506 7.61335e-06 -2.86823e-06 0.358775
0.34375 0.0078125 -0.00144982 7.49149e-06 -2.89775e-06 0.362463
0.347656 0.0078125 -0.00146434 7.36662e-06 -2.92678e-06 0.366091
0.351563 0.0078125 -0.00147861 7.23871e-06 -2.95532e-06 0.369658
0.355469 0.0078125 -0.00149263 7.10772e-06 -2.98335e-06 0.373162
0.359375 0.0078125 -0.0015064 6.97361e-06 -3.01087e-06 0.376602
0.363281 0.0078125 -0.0015199 6.83635e-06 -3.03785e-06 0.379977
0.367188 0.0078125 -0.00153313 6.69591e-06 -3.0643e-06 0.383284
0.371094 0.0078125 -0.00154608 6.55226e-06 -3.09018e-06 0.386522
0.375 0.0078125 -0.00155875 6.40537e-06 -3.1155e-06 0.38969
0.378906 0.0078125 -0.00157114 6.25522e-06 -3.14025e-06 0.392787
0.382813 0.0078125 -0.00158323 6.10179e-06 -3.16439e-06 0.39581
0.386719 0.0078125 -0.00159501 5.94507e-06 -3.18793e-06 0.398758
0.390625 0.0078125 -0.00160649 5.78503e-06 -3.21086e-06 0.401629
0.394531 0.0078125 -0.00161765 5.62167e-06 -3.23315e-06 0.404423
0.398438 0.0078125 -0.0016285 5.45499e-06 -3.2548e-06 0.407137
0.402344 0.0078125 -0.00163901 5.28496e-06 -3.27578e-06 0.409769
0.40625 0.0078125 -0.0016492 5.11161e-06 -3.2961e-06 0.412319
0.410156 0.0078125 -0.00165904 4.93492e-06 -3.31574e-06 0.414784
0.414063 0.0078125 -0.00166854 4.75492e-06 -3.33467e-06 0.417164
0.417969 0.0078125 -0.00167768 4.5716e-06 -3.3529e-06 0.419456
0.421875 0.0078125 -0.00168647 4.38498e-06 -3.37041e-06 0.421658
0.425781 0.0078125 -0.00169489 4.19509e-06 -3.38718e-06 0.42377
0.429688 0.0078125 -0.00170293 4.00194e-06 -3.4032e-06 0.42579
0.433594 0.0078125 -0.0017106 3.80557e-06 -3.41846e-06 0.427716
0.4375 0.0078125 -0.00171789 3.60601e-06 -3.43294e-06 0.429547
0.441406 0.0078125 -0.00172479 3.4033e-06 -3.44664e-06 0.431281
0.445313 0.0078125 -0.00173128 3.19747e-06 -3.45955e-06 0.432916
0.449219 0.0078125 -0.00173738 2.98859e-06 -3.47164e-06 0.434452
0.453125 0.0078125 -0.00174307 2.77669e-06 -3.48291e-06 0.435887
0.457031 0.0078125 -0.00174834 2.56184e-06 -3.49334e-06 0.437219
0.460938 0.0078125 -0.0017532 2.34411e-06 -3.50294e-06 0.438447
0.464844 0.0078125 -0.00175763 2.12355e-06 -3.51167e-06 0.43957
0.46875 0.0078125 -0.00176163 1.90025e-06 -3.51954e-06 0.440586
0.472656 0.0078125 -0.0017652 1.67428e-06 -3.52653e-06 0.441494
0.476563 0.0078125 -0.00176832 1.44573e-06 -3.53263e-06 0.442293
0.480469 0.0078125 -0.001771 1.21469e-06 -3.53783e-06 0.442982
0.484375 0.0078125 -0.00177323 9.81249e-07 -3.54213e-06 0.443559
0.488281 0.0078125 -0.001775 7.45515e-07 -3.5455e-06 0.444024
0.492188 0.0078125 -0.00177631 5.07591e-07 -3.54796e-06 0.444374
0.496094 0.0078125 -0.00177716 2.67591e-07 -3.54948e-06 0.444611
0.5 0.0078125 -0.00177755 2.56326e-08 -3.55005e-06 0.444731
0.503906 0.0078125 -0.00177746 -2.18162e-07 -3.54968e-06 0.444735
0.507813 0.0078125 -0.0017769 -4.63663e-07 -3.54835e-06 0.444621
0.511719 0.0078125 -0.00177586 -7.10738e-07 -3.54606e-06 0.44439
0.515625 0.0078125 -0.00177434 -9.59247e-07 -3.5428e-06 0.444039
0.519531 0.0078125 -0.00177234 -1.20905e-06 -3.53857e-06 0.443569
0.523438 0.0078125 -0.00176986 -1.45999e-06 -3.53336e-06 0.442978
0.527344 0.0078125 -0.00176688 -1.71191e-06 -3.52716e-06 0.442267
0.53125 0.0078125 -0.00176342 -1.96467e-06 -3.51998e-06 0.441435
0.535156 0.0078125 -0.00175947 -2.21809e-06 -3.51181e-06 0.440482
0.539063 0.0078125 -0.00175502 -2.47201e-06 -3.50265e-06 0.439406
0.542969 0.0078125 -0.00175008 -2.72625e-06 -3.49249e-06 0.438209
0.546875 0.0078125 -0.00174465 -2.98065e-06 -3.48134e-06 0.436889
0.550781 0.0078125 -0.00173873 -3.23501e-06 -3.4692e-06 0.435448
0.554688 0.0078125 -0.00173231 -3.48916e-06 -3.45606e-06 0.433884
0.558594 0.0078125 -0.0017254 -3.74291e-06 -3.44193e-06 0.432198
0.5625 0.0078125 -0.001718 -3.99608e-06 -3.42681e-06 0.430391
0.566406 0.0078125 -0.00171011 -4.24846e-06 -3.4107e-06 0.428462
0.570313 0.0078125 -0.00170173 -4.49987e-06 -3.39361e-06 0.426412
0.574219 0.0078125 -0.00169286 -4.75012e-06 -3.37553e-06 0.424242
0.578125 0.0078125 -0.00168351 -4.99899e-06 -3.35648e-06 0.421951
0.582031 0.0078125 -0.00167367 -5.2463e-06 -3.33646e-06 0.419541
0.585938 0.0078125 -0.00166336 -5.49185e-06 -3.31548e-06 0.417012
0.589844 0.0078125 -0.00165258 -5.73543e-06 -3.29354e-06 0.414366
0.59375 0.0078125 -0.00164132 -5.97684e-06 -3.27065e-06 0.411603
0.597656 0.0078125 -0.0016296 -6.21589e-06 -3.24683e-06 0.408723
0.601563 0.0078125 -0.00161741 -6.45237e-06 -3.22207e-06 0.40573
0.605469 0.0078125 -0.00160477 -6.68608e-06 -3.1964e-06 0.402622
0.609375 0.0078125 -0.00159167 -6.91684e-06 -3.16981e-06 0.399403
0.613281 0.0078125 -0.00157813 -7.14443e-06 -3.14233e-06 0.396073
0.617188 0.0078125 -0.00156415 -7.36868e-06 -3.11397e-06 0.392633
0.621094 0.0078125 -0.00154974 -7.58939e-06 -3.08474e-06 0.389086
0.625 0.0078125 -0.0015349 -7.80636e-06 -3.05465e-06 0.385433
0.628906 0.0078125 -0.00151964 -8.01943e-06 -3.02372e-06 0.381676
0.632813 0.0078125 -0.00150397 -8.2284e-06 -2.99197e-06 0.377816
0.636719 0.0078125 -0.0014879 -8.4331e-06 -2.95941e-06 0.373856
0.640625 0.0078125 -0.00147143 -8.63337e-06 -2.92605e-06 0.369797
0.644531 0.0078125 -0.00145458 -8.82902e-06 -2.89192e-06 0.365641
0.648438 0.0078125 -0.00143734 -9.01991e-06 -2.85704e-06 0.361392
0.652344 0.0078125 -0.00141974 -9.20588e-06 -2.82142e-06 0.35705
0.65625 0.0078125 -0.00140178 -9.38677e-06 -2.78508e-06 0.352619
0.660156 0.0078125 -0.00138347 -9.56244e-06 -2.74805e-06 0.3481
0.664063 0.0078125 -0.00136482 -9.73276e-06 -2.71034e-06 0.343496
0.667969 0.0078125 -0.00134585 -9.8976e-06 -2.67197e-06 0.33881
0.671875 0.0078125 -0.00132655 -1.00568e-05 -2.63297e-06 0.334044
0.675781 0.0078125 -0.00130695 -1.02103e-05 -2.59336e-06 0.329201
0.679688 0.0078125 -0.00128705 -1.0358e-05 -2.55316e-06 0.324283
0.683594 0.0078125 -0.00126686 -1.04997e-05 -2.51239e-06 0.319293
0.6875 0.0078125 -0.00124641 -1.06354e-05 -2.47108e-06 0.314234
0.691406 0.0078125 -0.00122569 -1.0765e-05 -2.42926e-06 0.309109
0.695313 0.0078125 -0.00120471 -1.08884e-05 -2.38693e-06 0.30392
0.699219 0.0078125 -0.0011835 -1.10055e-05 -2.34414e-06 0.298671
0.703125 0.0078125 -0.00116207 -1.11163e-05 -2.30091e-06 0.293365
0.707031 0.0078125 -0.00114042 -1.12207e-05 -2.25725e-06 0.288003
0.710938 0.0078125 -0.00111856 -1.13186e-05 -2.21319e-06 0.282591
0.714844 0.0078125 -0.00109652 -1.141e-05 -2.16877e-06 0.277129
0.71875 0.0078125 -0.0010743 -1.14949e-05 -2.124e-06 0.271622
0.722656 0.0078125 -0.00105192 -1.15732e-05 -2.07891e-06 0.266073
0.726563 0.0078125 -0.00102938 -1.16449e-05 -2.03353e-06 0.260484
0.730469 0.0078125 -0.0010067 -1.171e-05 -1.98788e-06 0.254858
0.734375 0.0078125 -0.000983901 -1.17685e-05 -1.94199e-06 0.2492
0.738281 0.0078125 -0.000960985 -1.18203e-05 -1.89589e-06 0.243511
0.742188 0.0078125 -0.000937967 -1.18654e-05 -1.84959e-06 0.237796
0.746094 0.0078125 -0.000914861 -1.19038e-05 -1.80313e-06 0.232057
0.75 0.0078125 -0.000891679 -1.19355e-05 -1.75654e-06 0.226297
0.753906 0.0078125 -0.000868435 -1.19605e-05 -1.70983e-06 0.220519
0.757813 0.0078125 -0.000845142 -1.19788e-05 -1.66304e-06 0.214728
0.761719 0.0078125 -0.000821812 -1.19903e-05 -1.61619e-06 0.208925
0.765625 0.0078125 -0.000798459 -1.19951e-05 -1.56931e-06 0.203115
0.769531 0.0078125 -0.000775095 -1.19931e-05 -1.52242e-06 0.1973
0.773438 0.0078125 -0.000751734 -1.19842e-05 -1.47556e-06 0.191484
0.777344 0.0078125 -0.000728389 -1.19686e-05 -1.42874e-06 0.18567
0.78125 0.0078125 -0.000705074 -1.1946e-05 -1.38199e-06 0.179861
0.785156 0.0078125 -0.000681801 -1.19166e-05 -1.33535e-06 0.17406
0.789063 0.0078125 -0.000658585 -1.18801e-05 -1.28884e-06 0.168272
0.792969 0.0078125 -0.000635438 -1.18366e-05 -1.24248e-06 0.162499
0.796875 0.0078125 -0.000612376 -1.17859e-05 -1.19631e-06 0.156745
0.800781 0.0078125 -0.000589411 -1.17279e-05 -1.15035e-06 0.151013
0.804688 0.0078125 -0.000566558 -1.16626e-05 -1.10463e-06 0.145307
0.808594 0.0078125 -0.000543832 -1.15898e-05 -1.05918e-06 0.13963
0.8125 0.0078125 -0.000521248 -1.15094e-05 -1.01403e-06 0.133987
0.816406 0.0078125 -0.00049882 -1.14211e-05 -9.69206e-07 0.128381
0.820313 0.0078125 -0.000476564 -1.13247e-05 -9.24746e-07 0.122815
0.824219 0.0078125 -0.000454497 -1.12202e-05 -8.80678e-07 0.117295
0.828125 0.0078125 -0.000432633 -1.11071e-05 -8.37036e-07 0.111824
0.832031 0.0078125 -0.000410991 -1.09853e-05 -7.93852e-07 0.106405
0.835938 0.0078125 -0.000389588 -1.08545e-05 -7.51161e-07 0.101045
0.839844 0.0078125 -0.000368441 -1.07143e-05 -7.09e-07 0.0957463
0.84375 0.0078125 -0.00034757 -1.05645e-05 -6.67406e-07 0.0905146
0.847656 0.0078125 -0.000326993 -1.04045e-05 -6.26416e-07 0.0853545
0.851563 0.0078125 -0.000306731 -1.02342e-05 -5.86072e-07 0.0802711