Title=" Lid Driven Flow"
VARIABLES="X","Y","U","V","psi","xi"
ZONE T= "BOX", I= 201, J=201, F=POINT
0 0 0 0 0.000575227 0
0.005 0 0 0 0 0
0.01 0 0 0 0 0
0.015 0 0 0 0 161.888
0.02 0 0 0 0 176.134
0.025 0 0 0 0 155.651
0.03 0 0 0 0 133.311
0.035 0 0 0 0 115.845
0.04 0 0 0 0 103.04
0.045 0 0 0 0 93.5445
0.05 0 0 0 0 86.2435
0.055 0 0 0 0 80.402
0.06 0 0 0 0 75.5607
0.065 0 0 0 0 71.4313
0.07 0 0 0 0 67.8275
0.075 0 0 0 0 64.6245
0.08 0 0 0 0 61.7362
0.085 0 0 0 0 59.1014
0.09 0 0 0 0 56.6756
0.095 0 0 0 0 54.4255
0.1 0 0 0 0 52.3263
0.105 0 0 0 0 50.3587
0.11 0 0 0 0 48.5075
0.115 0 0 0 0 46.7607
0.12 0 0 0 0 45.1086
0.125 0 0 0 0 43.5429
0.13 0 0 0 0 42.0568
0.135 0 0 0 0 40.6445
0.14 0 0 0 0 39.3007
0.145 0 0 0 0 38.0209
0.15 0 0 0 0 36.8008
0.155 0 0 0 0 35.6367
0.16 0 0 0 0 34.5251
0.165 0 0 0 0 33.4627
0.17 0 0 0 0 32.4465
0.175 0 0 0 0 31.4735
0.18 0 0 0 0 30.5411
0.185 0 0 0 0 29.6468
0.19 0 0 0 0 28.7879
0.195 0 0 0 0 27.9624
0.2 0 0 0 0 27.1678
0.205 0 0 0 0 26.4022
0.21 0 0 0 0 25.6636
0.215 0 0 0 0 24.95
0.22 0 0 0 0 24.2598
0.225 0 0 0 0 23.5912
0.23 0 0 0 0 22.9426
0.235 0 0 0 0 22.3126
0.24 0 0 0 0 21.6998
0.245 0 0 0 0 21.1028
0.25 0 0 0 0 20.5204
0.255 0 0 0 0 19.9515
0.26 0 0 0 0 19.3951
0.265 0 0 0 0 18.8501
0.27 0 0 0 0 18.3157
0.275 0 0 0 0 17.7911
0.28 0 0 0 0 17.2755
0.285 0 0 0 0 16.7683
0.29 0 0 0 0 16.2689
0.295 0 0 0 0 15.7767
0.3 0 0 0 0 15.2914
0.305 0 0 0 0 14.8125
0.31 0 0 0 0 14.3398
0.315 0 0 0 0 13.8728
0.32 0 0 0 0 13.4116
0.325 0 0 0 0 12.9558
0.33 0 0 0 0 12.5055
0.335 0 0 0 0 12.0606
0.34 0 0 0 0 11.621
0.345 0 0 0 0 11.1869
0.35 0 0 0 0 10.7583
0.355 0 0 0 0 10.3354
0.36 0 0 0 0 9.91823
0.365 0 0 0 0 9.50709
0.37 0 0 0 0 9.10216
0.375 0 0 0 0 8.70367
0.38 0 0 0 0 8.31189
0.385 0 0 0 0 7.92708
0.39 0 0 0 0 7.54951
0.395 0 0 0 0 7.17947
0.4 0 0 0 0 6.81724
0.405 0 0 0 0 6.46311
0.41 0 0 0 0 6.11734
0.415 0 0 0 0 5.78022
0.42 0 0 0 0 5.45198
0.425 0 0 0 0 5.13288
0.43 0 0 0 0 4.82313
0.435 0 0 0 0 4.52293
0.44 0 0 0 0 4.23246
0.445 0 0 0 0 3.95187
0.45 0 0 0 0 3.68127
0.455 0 0 0 0 3.42077
0.46 0 0 0 0 3.17043
0.465 0 0 0 0 2.93028
0.47 0 0 0 0 2.70033
0.475 0 0 0 0 2.48055
0.48 0 0 0 0 2.27089
0.485 0 0 0 0 2.07127
0.49 0 0 0 0 1.88156
0.495 0 0 0 0 1.70163
0.5 0 0 0 0 1.53133
0.505 0 0 0 0 1.37044
0.51 0 0 0 0 1.21878
0.515 0 0 0 0 1.0761
0.52 0 0 0 0 0.942162
0.525 0 0 0 0 0.8167
0.53 0 0 0 0 0.699436
0.535 0 0 0 0 0.590082
0.54 0 0 0 0 0.488341
0.545 0 0 0 0 0.393908
0.55 0 0 0 0 0.306472
0.555 0 0 0 0 0.225722
0.56 0 0 0 0 0.151342
0.565 0 0 0 0 0.0830175
0.57 0 0 0 0 0.0204371
0.575 0 0 0 0 -0.0367087
0.58 0 0 0 0 -0.0887245
0.585 0 0 0 0 -0.135909
0.59 0 0 0 0 -0.178554
0.595 0 0 0 0 -0.216945
0.6 0 0 0 0 -0.251355
0.605 0 0 0 0 -0.282053
0.61 0 0 0 0 -0.309294
0.615 0 0 0 0 -0.333324
0.62 0 0 0 0 -0.354379
0.625 0 0 0 0 -0.372682
0.63 0 0 0 0 -0.388445
0.635 0 0 0 0 -0.401871
0.64 0 0 0 0 -0.413146
0.645 0 0 0 0 -0.42245
0.65 0 0 0 0 -0.429949
0.655 0 0 0 0 -0.435795
0.66 0 0 0 0 -0.440134
0.665 0 0 0 0 -0.443097
0.67 0 0 0 0 -0.444806
0.675 0 0 0 0 -0.445375
0.68 0 0 0 0 -0.444906
0.685 0 0 0 0 -0.443493
0.69 0 0 0 0 -0.441222
0.695 0 0 0 0 -0.438172
0.7 0 0 0 0 -0.434414
0.705 0 0 0 0 -0.430014
0.71 0 0 0 0 -0.42503
0.715 0 0 0 0 -0.419518
0.72 0 0 0 0 -0.413527
0.725 0 0 0 0 -0.407103
0.73 0 0 0 0 -0.400289
0.735 0 0 0 0 -0.393124
0.74 0 0 0 0 -0.385645
0.745 0 0 0 0 -0.377886
0.75 0 0 0 0 -0.369879
0.755 0 0 0 0 -0.361655
0.76 0 0 0 0 -0.353243
0.765 0 0 0 0 -0.344668
0.77 0 0 0 0 -0.335958
0.775 0 0 0 0 -0.327136
0.78 0 0 0 0 -0.318226
0.785 0 0 0 0 -0.309249
0.79 0 0 0 0 -0.300225
0.795 0 0 0 0 -0.291173
0.8 0 0 0 0 -0.28211
0.805 0 0 0 0 -0.273053
0.81 0 0 0 0 -0.264016
0.815 0 0 0 0 -0.255012
0.82 0 0 0 0 -0.246052
0.825 0 0 0 0 -0.237146
0.83 0 0 0 0 -0.228302
0.835 0 0 0 0 -0.219528
0.84 0 0 0 0 -0.210828
0.845 0 0 0 0 -0.202206
0.85 0 0 0 0 -0.193665
0.855 0 0 0 0 -0.185206
0.86 0 0 0 0 -0.17683
0.865 0 0 0 0 -0.168534
0.87 0 0 0 0 -0.160319
0.875 0 0 0 0 -0.152181
0.88 0 0 0 0 -0.144118
0.885 0 0 0 0 -0.136128
0.89 0 0 0 0 -0.128207
0.895 0 0 0 0 -0.120355
0.9 0 0 0 0 -0.112569
0.905 0 0 0 0 -0.10485
0.91 0 0 0 0 -0.0971991
0.915 0 0 0 0 -0.0896211
0.92 0 0 0 0 -0.0821221
0.925 0 0 0 0 -0.0747116
0.93 0 0 0 0 -0.0674032
0.935 0 0 0 0 -0.0602148
0.94 0 0 0 0 -0.0531696
0.945 0 0 0 0 -0.0462969
0.95 0 0 0 0 -0.0396329
0.955 0 0 0 0 -0.033222
0.96 0 0 0 0 -0.0271174
0.965 0 0 0 0 -0.0213831
0.97 0 0 0 0 -0.0160939
0.975 0 0 0 0 -0.0113371
0.98 0 0 0 0 -0.0072124
0.985 0 0 0 0 -0.00382956
0.99 0 0 0 0 -0.00130221
0.995 0 0 0 0 0.000270803
1 0 0 0 0 0.000851649
0 0.005 0 0 0 0
0.005 0.005 0 0 0 0
0.01 0.005 0 0 0 73.7246
0.015 0.005 0 0 0 61.9801
0.02 0.005 0 0 0 45.517
0.025 0.005 0 0 0 33.6838
0.03 0.005 0 0 0 25.8022
0.035 0.005 0 0 0 20.4677
0.04 0.005 0 0 0 16.718
0.045 0.005 0 0 0 13.978
0.05 0.005 0 0 0 11.9077
0.055 0.005 0 0 0 10.3004
0.06 0.005 0 0 0 9.02499
0.065 0.005 0 0 0 7.99486
0.07 0.005 0 0 0 7.15078
0.075 0.005 0 0 0 6.45077
0.08 0.005 0 0 0 5.86434
0.085 0.005 0 0 0 5.36881
0.09 0.005 0 0 0 4.94695
0.095 0.005 0 0 0 4.58551
0.1 0.005 0 0 0 4.27409
0.105 0.005 0 0 0 4.00448
0.11 0.005 0 0 0 3.77008
0.115 0.005 0 0 0 3.56556
0.12 0.005 0 0 0 3.38657
0.125 0.005 0 0 0 3.22952
0.13 0.005 0 0 0 3.09144
0.135 0.005 0 0 0 2.96984
0.14 0.005 0 0 0 2.86264
0.145 0.005 0 0 0 2.76805
0.15 0.005 0 0 0 2.68459
0.155 0.005 0 0 0 2.61095
0.16 0.005 0 0 0 2.54602
0.165 0.005 0 0 0 2.48886
0.17 0.005 0 0 0 2.43862
0.175 0.005 0 0 0 2.39457
0.18 0.005 0 0 0 2.35608
0.185 0.005 0 0 0 2.32258
0.19 0.005 0 0 0 2.29358
0.195 0.005 0 0 0 2.26863
0.2 0.005 0 0 0 2.24734
0.205 0.005 0 0 0 2.22936
0.21 0.005 0 0 0 2.21436
0.215 0.005 0 0 0 2.20207
0.22 0.005 0 0 0 2.19221
0.225 0.005 0 0 0 2.18457
0.23 0.005 0 0 0 2.17891
0.235 0.005 0 0 0 2.17504
0.24 0.005 0 0 0 2.17279
0.245 0.005 0 0 0 2.17198
0.25 0.005 0 0 0 2.17246
0.255 0.005 0 0 0 2.17409
0.26 0.005 0 0 0 2.17673
0.265 0.005 0 0 0 2.18025
0.27 0.005 0 0 0 2.18455
0.275 0.005 0 0 0 2.18951
0.28 0.005 0 0 0 2.19502
0.285 0.005 0 0 0 2.20099
0.29 0.005 0 0 0 2.20733
0.295 0.005 0 0 0 2.21395
0.3 0.005 0 0 0 2.22077
0.305 0.005 0 0 0 2.22771
0.31 0.005 0 0 0 2.23468
0.315 0.005 0 0 0 2.24163
0.32 0.005 0 0 0 2.24849
0.325 0.005 0 0 0 2.25518
0.33 0.005 0 0 0 2.26165
0.335 0.005 0 0 0 2.26785
0.34 0.005 0 0 0 2.2737
0.345 0.005 0 0 0 2.27917
0.35 0.005 0 0 0 2.2842
0.355 0.005 0 0 0 2.28875
0.36 0.005 0 0 0 2.29277
0.365 0.005 0 0 0 2.29621
0.37 0.005 0 0 0 2.29904
0.375 0.005 0 0 0 2.30123
0.38 0.005 0 0 0 2.30273
0.385 0.005 0 0 0 2.30352
0.39 0.005 0 0 0 2.30356
0.395 0.005 0 0 0 2.30284
0.4 0.005 0 0 0 2.30131
0.405 0.005 0 0 0 2.29897
0.41 0.005 0 0 0 2.2958
0.415 0.005 0 0 0 2.29176
0.42 0.005 0 0 0 2.28686
0.425 0.005 0 0 0 2.28108
0.43 0.005 0 0 0 2.27441
0.435 0.005 0 0 0 2.26684
0.44 0.005 0 0 0 2.25836
0.445 0.005 0 0 0 2.24898
0.45 0.005 0 0 0 2.23869
0.455 0.005 0 0 0 2.22749
0.46 0.005 0 0 0 2.21538
0.465 0.005 0 0 0 2.20238
0.47 0.005 0 0 0 2.18849
0.475 0.005 0 0 0 2.17372
0.48 0.005 0 0 0 2.15807
0.485 0.005 0 0 0 2.14157
0.49 0.005 0 0 0 2.12423
0.495 0.005 0 0 0 2.10606
0.5 0.005 0 0 0 2.08709
0.505 0.005 0 0 0 2.06733
0.51 0.005 0 0 0 2.0468
0.515 0.005 0 0 0 2.02552
0.52 0.005 0 0 0 2.00352
0.525 0.005 0 0 0 1.98083
0.53 0.005 0 0 0 1.95746
0.535 0.005 0 0 0 1.93345
0.54 0.005 0 0 0 1.90881
0.545 0.005 0 0 0 1.88359
0.55 0.005 0 0 0 1.85781
0.555 0.005 0 0 0 1.83149
0.56 0.005 0 0 0 1.80466
0.565 0.005 0 0 0 1.77737
0.57 0.005 0 0 0 1.74962
0.575 0.005 0 0 0 1.72147
0.58 0.005 0 0 0 1.69293
0.585 0.005 0 0 0 1.66403
0.59 0.005 0 0 0 1.63481
0.595 0.005 0 0 0 1.6053
0.6 0.005 0 0 0 1.57552
0.605 0.005 0 0 0 1.5455
0.61 0.005 0 0 0 1.51528
0.615 0.005 0 0 0 1.48488
0.62 0.005 0 0 0 1.45433
0.625 0.005 0 0 0 1.42366
0.63 0.005 0 0 0 1.39289
0.635 0.005 0 0 0 1.36205
0.64 0.005 0 0 0 1.33117
0.645 0.005 0 0 0 1.30027
0.65 0.005 0 0 0 1.26938
0.655 0.005 0 0 0 1.23851
0.66 0.005 0 0 0 1.2077
0.665 0.005 0 0 0 1.17696
0.67 0.005 0 0 0 1.14632
0.675 0.005 0 0 0 1.11579
0.68 0.005 0 0 0 1.0854
0.685 0.005 0 0 0 1.05516
0.69 0.005 0 0 0 1.0251
0.695 0.005 0 0 0 0.99523
0.7 0.005 0 0 0 0.965569
0.705 0.005 0 0 0 0.936132
0.71 0.005 0 0 0 0.906936
0.715 0.005 0 0 0 0.877995
0.72 0.005 0 0 0 0.849325
0.725 0.005 0 0 0 0.820938
0.73 0.005 0 0 0 0.792848
0.735 0.005 0 0 0 0.765068
0.74 0.005 0 0 0 0.73761
0.745 0.005 0 0 0 0.710486
0.75 0.005 0 0 0 0.683706
0.755 0.005 0 0 0 0.657283
0.76 0.005 0 0 0 0.631225
0.765 0.005 0 0 0 0.605544
0.77 0.005 0 0 0 0.58025
0.775 0.005 0 0 0 0.555351
0.78 0.005 0 0 0 0.530858
0.785 0.005 0 0 0 0.50678
0.79 0.005 0 0 0 0.483125
0.795 0.005 0 0 0 0.459902
0.8 0.005 0 0 0 0.43712
0.805 0.005 0 0 0 0.414789
0.81 0.005 0 0 0 0.392916
0.815 0.005 0 0 0 0.37151
0.82 0.005 0 0 0 0.350579
0.825 0.005 0 0 0 0.330134
0.83 0.005 0 0 0 0.310182
0.835 0.005 0 0 0 0.290732
0.84 0.005 0 0 0 0.271793
0.845 0.005 0 0 0 0.253375
0.85 0.005 0 0 0 0.235487
0.855 0.005 0 0 0 0.218138
0.86 0.005 0 0 0 0.201339
0.865 0.005 0 0 0 0.1851
0.87 0.005 0 0 0 0.16943
0.875 0.005 0 0 0 0.154342
0.88 0.005 0 0 0 0.139845
0.885 0.005 0 0 0 0.125953
0.89 0.005 0 0 0 0.112675
0.895 0.005 0 0 0 0.100026
0.9 0.005 0 0 0 0.0880183
0.905 0.005 0 0 0 0.0766649
0.91 0.005 0 0 0 0.0659802
0.915 0.005 0 0 0 0.0559787
0.92 0.005 0 0 0 0.0466756
0.925 0.005 0 0 0 0.0380865
0.93 0.005 0 0 0 0.0302275
0.935 0.005 0 0 0 0.0231149
0.94 0.005 0 0 0 0.0167651
0.945 0.005 0 0 0 0.0111943
0.95 0.005 0 0 0 0.00641752
0.955 0.005 0 0 0 0.00244815
0.96 0.005 0 0 0 -0.000703794
0.965 0.005 0 0 0 -0.00303387
0.97 0.005 0 0 0 -0.00454681
0.975 0.005 0 0 0 -0.00526232
0.98 0.005 0 0 0 -0.00522473
0.985 0.005 0 0 0 -0.00451908
0.99 0.005 0 0 0 -0.00329809
0.995 0.005 0 0 0 -0.0018252
1 0.005 0 0 0 -0.000529199
0 0.01 0 0 -0.000529199 0
0.005 0.01 0 0 0 -326.275
0.01 0.01 -0.179949 0.0774751 -0.000921557 -44.4793
0.015 0.01 -0.184464 -0.0352595 -0.000774751 9.44626
0.02 0.01 -0.155655 -0.0353704 -0.000568963 19.0599
0.025 0.01 -0.126683 -0.0246435 -0.000421047 18.9654
0.03 0.01 -0.103433 -0.01652 -0.000322528 16.8446
0.035 0.01 -0.0856434 -0.0113553 -0.000255847 14.582
0.04 0.01 -0.0720523 -0.00811222 -0.000208975 12.6078
0.045 0.01 -0.0615345 -0.00601278 -0.000174725 10.9707
0.05 0.01 -0.05326 -0.0045969 -0.000148847 9.62773
0.055 0.01 -0.0466446 -0.00360344 -0.000128755 8.52331
0.06 0.01 -0.041278 -0.00288196 -0.000112812 7.60887
0.065 0.01 -0.0368688 -0.00234276 -9.99357e-05 6.84567
0.07 0.01 -0.0332061 -0.00193011 -8.93846e-05 6.2037
0.075 0.01 -0.0301343 -0.00160803 -8.06345e-05 5.65977
0.08 0.01 -0.0275369 -0.00135244 -7.33042e-05 5.19585
0.085 0.01 -0.0253245 -0.00114672 -6.711e-05 4.79783
0.09 0.01 -0.0234282 -0.00097911 -6.18368e-05 4.45454
0.095 0.01 -0.0217939 -0.000841062 -5.73187e-05 4.15706
0.1 0.01 -0.0203785 -0.000726273 -5.3426e-05 3.89821
0.105 0.01 -0.0191475 -0.000630002 -5.00558e-05 3.67214
0.11 0.01 -0.018073 -0.000548633 -4.71258e-05 3.47406
0.115 0.01 -0.0171321 -0.000479372 -4.45694e-05 3.30004
0.12 0.01 -0.016306 -0.000420035 -4.2332e-05 3.1468
0.125 0.01 -0.015579 -0.000368897 -4.03689e-05 3.01158
0.13 0.01 -0.0149382 -0.000324585 -3.86429e-05 2.89209
0.135 0.01 -0.0143725 -0.000285992 -3.71229e-05 2.78638
0.14 0.01 -0.0138727 -0.000252224 -3.57828e-05 2.69277
0.145 0.01 -0.0134308 -0.00022255 -3.46006e-05 2.60985
0.15 0.01 -0.0130402 -0.000196372 -3.35572e-05 2.5364
0.155 0.01 -0.0126949 -0.000173192 -3.26367e-05 2.47136
0.16 0.01 -0.0123899 -0.000152599 -3.18252e-05 2.41383
0.165 0.01 -0.012121 -0.000134248 -3.11106e-05 2.363
0.17 0.01 -0.0118842 -0.000117851 -3.04826e-05 2.31817
0.175 0.01 -0.0116763 -0.000103163 -2.99321e-05 2.27873
0.18 0.01 -0.0114943 -8.99766e-05 -2.94509e-05 2.24414
0.185 0.01 -0.0113356 -7.81163e-05 -2.90322e-05 2.21391
0.19 0.01 -0.011198 -6.74314e-05 -2.86697e-05 2.18763
0.195 0.01 -0.0110793 -5.77924e-05 -2.83579e-05 2.16491
0.2 0.01 -0.0109778 -4.90881e-05 -2.80917e-05 2.14541
0.205 0.01 -0.0108917 -4.12223e-05 -2.7867e-05 2.12882
0.21 0.01 -0.0108197 -3.41117e-05 -2.76795e-05 2.11487
0.215 0.01 -0.0107603 -2.76839e-05 -2.75258e-05 2.10329
0.22 0.01 -0.0107125 -2.18756e-05 -2.74027e-05 2.09387
0.225 0.01 -0.0106749 -1.66316e-05 -2.73071e-05 2.0864
0.23 0.01 -0.0106467 -1.19034e-05 -2.72364e-05 2.08068
0.235 0.01 -0.0106269 -7.64857e-06 -2.71881e-05 2.07654
0.24 0.01 -0.0106147 -3.82938e-06 -2.71599e-05 2.07381
0.245 0.01 -0.0106092 -4.1266e-07 -2.71498e-05 2.07235
0.25 0.01 -0.0106098 2.63105e-06 -2.71558e-05 2.07203
0.255 0.01 -0.0106157 5.32794e-06 -2.71762e-05 2.0727
0.26 0.01 -0.0106263 7.70141e-06 -2.72092e-05 2.07425
0.265 0.01 -0.0106411 9.77238e-06 -2.72532e-05 2.07657
0.27 0.01 -0.0106594 1.15597e-05 -2.7307e-05 2.07956
0.275 0.01 -0.0106808 1.30802e-05 -2.73689e-05 2.0831
0.28 0.01 -0.0107048 1.43495e-05 -2.74379e-05 2.08712
0.285 0.01 -0.0107309 1.53813e-05 -2.75125e-05 2.09153
0.29 0.01 -0.0107586 1.61886e-05 -2.75918e-05 2.09623
0.295 0.01 -0.0107875 1.67831e-05 -2.76746e-05 2.10115
0.3 0.01 -0.0108174 1.71756e-05 -2.77598e-05 2.10623
0.305 0.01 -0.0108477 1.73762e-05 -2.78465e-05 2.11138
0.31 0.01 -0.0108781 1.73943e-05 -2.79337e-05 2.11654
0.315 0.01 -0.0109083 1.72388e-05 -2.80206e-05 2.12165
0.32 0.01 -0.0109381 1.69181e-05 -2.81063e-05 2.12665
0.325 0.01 -0.0109669 1.64402e-05 -2.81899e-05 2.13148
0.33 0.01 -0.0109947 1.58127e-05 -2.82709e-05 2.13608
0.335 0.01 -0.0110211 1.50429e-05 -2.83483e-05 2.14041
0.34 0.01 -0.0110458 1.41379e-05 -2.84215e-05 2.14442
0.345 0.01 -0.0110686 1.31047e-05 -2.84899e-05 2.14805
0.35 0.01 -0.0110893 1.19501e-05 -2.85528e-05 2.15128
0.355 0.01 -0.0111077 1.06806e-05 -2.86096e-05 2.15405
0.36 0.01 -0.0111235 9.30278e-06 -2.86598e-05 2.15632
0.365 0.01 -0.0111365 7.82309e-06 -2.87029e-05 2.15807
0.37 0.01 -0.0111466 6.24789e-06 -2.87383e-05 2.15926
0.375 0.01 -0.0111536 4.58351e-06 -2.87656e-05 2.15985
0.38 0.01 -0.0111573 2.83624e-06 -2.87844e-05 2.15982
0.385 0.01 -0.0111576 1.0123e-06 -2.87943e-05 2.15914
0.39 0.01 -0.0111544 -8.82069e-07 -2.87948e-05 2.15779
0.395 0.01 -0.0111475 -2.8407e-06 -2.87857e-05 2.15574
0.4 0.01 -0.0111368 -4.85743e-06 -2.87667e-05 2.15298
0.405 0.01 -0.0111222 -6.92614e-06 -2.87375e-05 2.14948
0.41 0.01 -0.0111037 -9.04075e-06 -2.86978e-05 2.14523
0.415 0.01 -0.0110811 -1.11952e-05 -2.86474e-05 2.14022
0.42 0.01 -0.0110544 -1.33835e-05 -2.85861e-05 2.13443
0.425 0.01 -0.0110235 -1.55998e-05 -2.85139e-05 2.12786
0.43 0.01 -0.0109884 -1.78381e-05 -2.84304e-05 2.1205
0.435 0.01 -0.0109491 -2.00926e-05 -2.83358e-05 2.11234
0.44 0.01 -0.0109055 -2.23577e-05 -2.82298e-05 2.10338
0.445 0.01 -0.0108577 -2.46278e-05 -2.81126e-05 2.09362
0.45 0.01 -0.0108055 -2.68973e-05 -2.79839e-05 2.08306
0.455 0.01 -0.0107491 -2.9161e-05 -2.78439e-05 2.07171
0.46 0.01 -0.0106885 -3.14135e-05 -2.76926e-05 2.05956
0.465 0.01 -0.0106237 -3.36497e-05 -2.75301e-05 2.04662
0.47 0.01 -0.0105546 -3.58648e-05 -2.73565e-05 2.03291
0.475 0.01 -0.0104815 -3.8054e-05 -2.71718e-05 2.01842
0.48 0.01 -0.0104042 -4.02126e-05 -2.69763e-05 2.00318
0.485 0.01 -0.010323 -4.23363e-05 -2.677e-05 1.98719
0.49 0.01 -0.0102378 -4.4421e-05 -2.65532e-05 1.97047
0.495 0.01 -0.0101488 -4.64625e-05 -2.63261e-05 1.95303
0.5 0.01 -0.010056 -4.84571e-05 -2.6089e-05 1.93489
0.505 0.01 -0.00995949 -5.04014e-05 -2.58419e-05 1.91607
0.51 0.01 -0.00985942 -5.22919e-05 -2.55853e-05 1.89658
0.515 0.01 -0.00975588 -5.41255e-05 -2.53193e-05 1.87646
0.52 0.01 -0.00964897 -5.58995e-05 -2.50443e-05 1.85571
0.525 0.01 -0.00953882 -5.76112e-05 -2.47606e-05 1.83435
0.53 0.01 -0.00942555 -5.92582e-05 -2.44685e-05 1.81242
0.535 0.01 -0.00930927 -6.08384e-05 -2.41684e-05 1.78994
0.54 0.01 -0.00919011 -6.23499e-05 -2.38605e-05 1.76692
0.545 0.01 -0.00906821 -6.37912e-05 -2.35452e-05 1.7434
0.55 0.01 -0.0089437 -6.51607e-05 -2.32229e-05 1.7194
0.555 0.01 -0.00881672 -6.64574e-05 -2.28939e-05 1.69493
0.56 0.01 -0.00868739 -6.76803e-05 -2.25586e-05 1.67004
0.565 0.01 -0.00855587 -6.88287e-05 -2.22174e-05 1.64475
0.57 0.01 -0.0084223 -6.99021e-05 -2.18706e-05 1.61907
0.575 0.01 -0.0082868 -7.09003e-05 -2.15186e-05 1.59305
0.58 0.01 -0.00814953 -7.18232e-05 -2.11619e-05 1.5667
0.585 0.01 -0.00801062 -7.2671e-05 -2.08007e-05 1.54004
0.59 0.01 -0.00787022 -7.3444e-05 -2.04354e-05 1.51312
0.595 0.01 -0.00772845 -7.41427e-05 -2.00665e-05 1.48594
0.6 0.01 -0.00758547 -7.47677e-05 -1.96942e-05 1.45854
0.605 0.01 -0.00744141 -7.532e-05 -1.9319e-05 1.43095
0.61 0.01 -0.00729641 -7.58005e-05 -1.89413e-05 1.40318
0.615 0.01 -0.00715058 -7.62103e-05 -1.85613e-05 1.37527
0.62 0.01 -0.00700408 -7.65508e-05 -1.81794e-05 1.34723
0.625 0.01 -0.00685702 -7.68232e-05 -1.7796e-05 1.31909
0.63 0.01 -0.00670953 -7.7029e-05 -1.74113e-05 1.29088
0.635 0.01 -0.00656173 -7.71698e-05 -1.70259e-05 1.26261
0.64 0.01 -0.00641374 -7.72473e-05 -1.66398e-05 1.23431
0.645 0.01 -0.00626569 -7.7263e-05 -1.62536e-05 1.206
0.65 0.01 -0.00611767 -7.72189e-05 -1.58674e-05 1.1777
0.655 0.01 -0.00596981 -7.71166e-05 -1.54816e-05 1.14943
0.66 0.01 -0.00582221 -7.6958e-05 -1.50964e-05 1.12122
0.665 0.01 -0.00567498 -7.67449e-05 -1.47121e-05 1.09307
0.67 0.01 -0.0055282 -7.64793e-05 -1.43291e-05 1.06502
0.675 0.01 -0.00538199 -7.6163e-05 -1.39475e-05 1.03707
0.68 0.01 -0.00523643 -7.57978e-05 -1.35676e-05 1.00924
0.685 0.01 -0.00509161 -7.53856e-05 -1.31897e-05 0.981561
0.69 0.01 -0.00494761 -7.49282e-05 -1.28139e-05 0.954035
0.695 0.01 -0.00480453 -7.44274e-05 -1.24405e-05 0.926682
0.7 0.01 -0.00466244 -7.3885e-05 -1.20697e-05 0.899517
0.705 0.01 -0.00452142 -7.33025e-05 -1.17018e-05 0.872553
0.71 0.01 -0.00438154 -7.26817e-05 -1.13368e-05 0.845805
0.715 0.01 -0.00424288 -7.20242e-05 -1.0975e-05 0.819286
0.72 0.01 -0.00410549 -7.13314e-05 -1.06167e-05 0.793009
0.725 0.01 -0.00396945 -7.06048e-05 -1.02618e-05 0.766986
0.73 0.01 -0.00383481 -6.98459e-05 -9.91068e-06 0.741228
0.735 0.01 -0.00370164 -6.90558e-05 -9.56343e-06 0.715747
0.74 0.01 -0.00357 -6.82358e-05 -9.2202e-06 0.690553
0.745 0.01 -0.00343994 -6.7387e-05 -8.88114e-06 0.665659
0.75 0.01 -0.00331151 -6.65106e-05 -8.54639e-06 0.641072
0.755 0.01 -0.00318476 -6.56074e-05 -8.21609e-06 0.616804
0.76 0.01 -0.00305976 -6.46784e-05 -7.89037e-06 0.592864
0.765 0.01 -0.00293653 -6.37244e-05 -7.56935e-06 0.569261
0.77 0.01 -0.00281514 -6.2746e-05 -7.25317e-06 0.546004
0.775 0.01 -0.00269563 -6.17439e-05 -6.94193e-06 0.523102
0.78 0.01 -0.00257804 -6.07186e-05 -6.63576e-06 0.500564
0.785 0.01 -0.00246242 -5.96707e-05 -6.33478e-06 0.478398
0.79 0.01 -0.0023488 -5.86004e-05 -6.03909e-06 0.456612
0.795 0.01 -0.00223724 -5.75081e-05 -5.7488e-06 0.435215
0.8 0.01 -0.00212778 -5.6394e-05 -5.46403e-06 0.414214
0.805 0.01 -0.00202045 -5.52582e-05 -5.18488e-06 0.393619
0.81 0.01 -0.0019153 -5.41008e-05 -4.91146e-06 0.373437
0.815 0.01 -0.00181237 -5.29217e-05 -4.64388e-06 0.353676
0.82 0.01 -0.00171171 -5.1721e-05 -4.38225e-06 0.334345
0.825 0.01 -0.00161335 -5.04983e-05 -4.12668e-06 0.315451
0.83 0.01 -0.00151734 -4.92535e-05 -3.87728e-06 0.297004
0.835 0.01 -0.00142372 -4.79863e-05 -3.63415e-06 0.279011
0.84 0.01 -0.00133253 -4.66963e-05 -3.39742e-06 0.261481
0.845 0.01 -0.00124383 -4.5383e-05 -3.16719e-06 0.244423
0.85 0.01 -0.00115766 -4.40459e-05 -2.94359e-06 0.227846
0.855 0.01 -0.00107405 -4.26845e-05 -2.72673e-06 0.211758
0.86 0.01 -0.000993073 -4.1298e-05 -2.51674e-06 0.19617
0.865 0.01 -0.000914762 -3.98858e-05 -2.31374e-06 0.18109
0.87 0.01 -0.000839173 -3.8447e-05 -2.11788e-06 0.16653
0.875 0.01 -0.000766357 -3.69808e-05 -1.92927e-06 0.152497
0.88 0.01 -0.000696368 -3.54861e-05 -1.74806e-06 0.139004
0.885 0.01 -0.000629261 -3.39619e-05 -1.5744e-06 0.12606
0.89 0.01 -0.000565095 -3.24072e-05 -1.40843e-06 0.113677
0.895 0.01 -0.000503929 -3.08206e-05 -1.25032e-06 0.101866
0.9 0.01 -0.000445824 -2.92009e-05 -1.10022e-06 0.090639
0.905 0.01 -0.000390843 -2.75468e-05 -9.58303e-07 0.0800071
0.91 0.01 -0.000339052 -2.5857e-05 -8.24745e-07 0.0699827
0.915 0.01 -0.000290518 -2.41299e-05 -6.99726e-07 0.0605782
0.92 0.01 -0.000245311 -2.23645e-05 -5.83438e-07 0.0518061
0.925 0.01 -0.0002035 -2.05594e-05 -4.76074e-07 0.0436788
0.93 0.01 -0.000165156 -1.87138e-05 -3.77837e-07 0.0362084
0.935 0.01 -0.00013035 -1.68273e-05 -2.8893e-07 0.0294068
0.94 0.01 -9.91504e-05 -1.49001e-05 -2.09558e-07 0.0232848
0.945 0.01 -7.16219e-05 -1.29339e-05 -1.39923e-07 0.0178518
0.95 0.01 -4.78212e-05 -1.09321e-05 -8.02144e-08 0.0131149
0.955 0.01 -2.77926e-05 -8.90118e-06 -3.0598e-08 0.00907777
0.96 0.01 -1.15604e-05 -6.85214e-06 8.80071e-09 0.00573901
0.965 0.01 8.8243e-07 -4.80344e-06 3.79261e-08 0.00308958
0.97 0.01 9.59046e-06 -2.78529e-06 5.68371e-08 0.0011094
0.975 0.01 1.46913e-05 -8.47203e-07 6.57804e-08 -0.000237621
0.98 0.01 1.64234e-05 9.29192e-07 6.53101e-08 -0.00101059
0.985 0.01 1.51933e-05 2.4084e-06 5.6489e-08 -0.00130057
0.99 0.01 1.16597e-05 3.36741e-06 4.12262e-08 -0.00123986
0.995 0.01 6.84823e-06 3.46113e-06 2.28149e-08 -0.00100257
1 0.01 2.27766e-06 2.28149e-06 6.61493e-09 -0.00076528
0 0.015 0 0 -0.00182213 0
0.005 0.015 0 0 0 -256.04
0.01 0.015 -0.152625 0.184464 -0.00179949 -79.3588
0.015 0.015 -0.205625 -0.0242944 -0.00184464 -16.6705
0.02 0.015 -0.203675 -0.0577808 -0.00155655 2.39786
0.025 0.015 -0.183675 -0.0522218 -0.00126683 8.09578
0.03 0.015 -0.160587 -0.0410398 -0.00103433 9.47471
0.035 0.015 -0.139382 -0.0313809 -0.000856434 9.38503
0.04 0.015 -0.121259 -0.024109 -0.000720523 8.80898
0.045 0.015 -0.106146 -0.0187923 -0.000615345 8.10616
0.05 0.015 -0.0936177 -0.0148899 -0.0005326 7.41044
0.055 0.015 -0.0832118 -0.011982 -0.000466445 6.76909
0.06 0.015 -0.074524 -0.00977576 -0.000412779 6.19521
0.065 0.015 -0.0672248 -0.00807187 -0.000368687 5.6884
0.07 0.015 -0.0610524 -0.00673439 -0.00033206 5.24331
0.075 0.015 -0.0558002 -0.00566918 -0.000301343 4.85311
0.08 0.015 -0.0513051 -0.00480983 -0.000275368 4.51097
0.085 0.015 -0.0474373 -0.0041086 -0.000253244 4.21063
0.09 0.015 -0.0440933 -0.00353056 -0.000234282 3.94655
0.095 0.015 -0.0411897 -0.00304968 -0.000217938 3.71392
0.1 0.015 -0.0386587 -0.00264632 -0.000203784 3.5086
0.105 0.015 -0.0364449 -0.00230544 -0.000191474 3.32707
0.11 0.015 -0.0345028 -0.00201536 -0.000180729 3.1663
0.115 0.015 -0.0327946 -0.00176696 -0.00017132 3.02371
0.12 0.015 -0.0312889 -0.001553 -0.000163059 2.89707
0.125 0.015 -0.0299593 -0.00136771 -0.00015579 2.78449
0.13 0.015 -0.0287834 -0.00120645 -0.000149382 2.68432
0.135 0.015 -0.0277424 -0.00106546 -0.000143725 2.59516
0.14 0.015 -0.0268202 -0.000941649 -0.000138727 2.51577
0.145 0.015 -0.026003 -0.000832504 -0.000134308 2.44508
0.15 0.015 -0.0252788 -0.000735934 -0.000130401 2.38217
0.155 0.015 -0.0246375 -0.000650203 -0.000126948 2.32623
0.16 0.015 -0.02407 -0.000573858 -0.000123899 2.27653
0.165 0.015 -0.0235686 -0.000505683 -0.000121209 2.23244
0.17 0.015 -0.0231265 -0.000444649 -0.000118842 2.19341
0.175 0.015 -0.0227375 -0.000389884 -0.000116763 2.15894
0.18 0.015 -0.0223965 -0.000340646 -0.000114943 2.12859
0.185 0.015 -0.0220986 -0.000296302 -0.000113356 2.10197
0.19 0.015 -0.0218397 -0.000256307 -0.000111979 2.07871
0.195 0.015 -0.0216161 -0.000220194 -0.000110793 2.05851
0.2 0.015 -0.0214243 -0.000187558 -0.000109777 2.04108
0.205 0.015 -0.0212614 -0.000158048 -0.000108917 2.02615
0.21 0.015 -0.0211245 -0.00013136 -0.000108197 2.0135
0.215 0.015 -0.0210113 -0.000107229 -0.000107603 2.00289
0.22 0.015 -0.0209194 -8.54222e-05 -0.000107125 1.99415
0.225 0.015 -0.0208468 -6.57363e-05 -0.000106749 1.98709
0.23 0.015 -0.0207916 -4.79922e-05 -0.000106467 1.98153
0.235 0.015 -0.0207521 -3.20322e-05 -0.000106269 1.97734
0.24 0.015 -0.0207266 -1.77167e-05 -0.000106147 1.97437
0.245 0.015 -0.0207137 -4.92226e-06 -0.000106092 1.97248
0.25 0.015 -0.020712 6.46124e-06 -0.000106098 1.97156
0.255 0.015 -0.0207202 1.65318e-05 -0.000106157 1.97149
0.26 0.015 -0.0207372 2.53772e-05 -0.000106264 1.97216
0.265 0.015 -0.0207618 3.30762e-05 -0.000106411 1.97349
0.27 0.015 -0.0207929 3.96997e-05 -0.000106595 1.97536
0.275 0.015 -0.0208297 4.5312e-05 -0.000106809 1.97771
0.28 0.015 -0.0208711 4.99713e-05 -0.000107048 1.98043
0.285 0.015 -0.0209163 5.37308e-05 -0.000107309 1.98347
0.29 0.015 -0.0209645 5.66393e-05 -0.000107586 1.98673
0.295 0.015 -0.0210148 5.87418e-05 -0.000107876 1.99016
0.3 0.015 -0.0210666 6.00797e-05 -0.000108174 1.99369
0.305 0.015 -0.0211192 6.06919e-05 -0.000108477 1.99725
0.31 0.015 -0.0211718 6.06146e-05 -0.000108782 2.00079
0.315 0.015 -0.0212239 5.9882e-05 -0.000109084 2.00425
0.32 0.015 -0.0212748 5.85265e-05 -0.000109381 2.00758
0.325 0.015 -0.021324 5.65788e-05 -0.00010967 2.01073
0.33 0.015 -0.021371 5.40686e-05 -0.000109948 2.01365
0.335 0.015 -0.0214151 5.10242e-05 -0.000110212 2.0163
0.34 0.015 -0.021456 4.74731e-05 -0.000110459 2.01863
0.345 0.015 -0.0214932 4.34422e-05 -0.000110687 2.02061
0.35 0.015 -0.0215262 3.89576e-05 -0.000110894 2.0222
0.355 0.015 -0.0215546 3.40447e-05 -0.000111078 2.02336
0.36 0.015 -0.0215781 2.87289e-05 -0.000111236 2.02407
0.365 0.015 -0.0215963 2.30349e-05 -0.000111366 2.02428
0.37 0.015 -0.0216088 1.69873e-05 -0.000111467 2.02398
0.375 0.015 -0.0216154 1.06103e-05 -0.000111537 2.02313
0.38 0.015 -0.0216157 3.92792e-06 -0.000111574 2.02172
0.385 0.015 -0.0216095 -3.03587e-06 -0.000111577 2.01971
0.39 0.015 -0.0215965 -1.02574e-05 -0.000111545 2.0171
0.395 0.015 -0.0215765 -1.77131e-05 -0.000111476 2.01386
0.4 0.015 -0.0215493 -2.53796e-05 -0.000111369 2.00998
0.405 0.015 -0.0215148 -3.32337e-05 -0.000111223 2.00544
0.41 0.015 -0.0214727 -4.12524e-05 -0.000111038 2.00023
0.415 0.015 -0.0214229 -4.94128e-05 -0.000110812 1.99434
0.42 0.015 -0.0213654 -5.76925e-05 -0.000110545 1.98777
0.425 0.015 -0.0213 -6.60691e-05 -0.000110236 1.9805
0.43 0.015 -0.0212267 -7.45206e-05 -0.000109885 1.97254
0.435 0.015 -0.0211453 -8.30253e-05 -0.000109492 1.96387
0.44 0.015 -0.0210559 -9.15619e-05 -0.000109056 1.9545
0.445 0.015 -0.0209585 -0.00010011 -0.000108578 1.94443
0.45 0.015 -0.0208531 -0.000108648 -0.000108057 1.93366
0.455 0.015 -0.0207396 -0.000117157 -0.000107493 1.9222
0.46 0.015 -0.0206182 -0.000125617 -0.000106886 1.91004
0.465 0.015 -0.0204888 -0.00013401 -0.000106238 1.89721
0.47 0.015 -0.0203517 -0.000142317 -0.000105548 1.88369
0.475 0.015 -0.0202068 -0.000150521 -0.000104816 1.86952
0.48 0.015 -0.0200543 -0.000158605 -0.000104044 1.85468
0.485 0.015 -0.0198943 -0.000166552 -0.000103231 1.8392
0.49 0.015 -0.0197269 -0.000174348 -0.00010238 1.8231
0.495 0.015 -0.0195524 -0.000181977 -0.000101489 1.80637
0.5 0.015 -0.0193708 -0.000189427 -0.000100561 1.78905
0.505 0.015 -0.0191824 -0.000196684 -9.95961e-05 1.77114
0.51 0.015 -0.0189873 -0.000203735 -9.85955e-05 1.75267
0.515 0.015 -0.0187857 -0.000210571 -9.756e-05 1.73364
0.52 0.015 -0.0185779 -0.00021718 -9.6491e-05 1.71409
0.525 0.015 -0.018364 -0.000223553 -9.53895e-05 1.69402
0.53 0.015 -0.0181444 -0.000229682 -9.42567e-05 1.67347
0.535 0.015 -0.0179191 -0.000235558 -9.30939e-05 1.65244
0.54 0.015 -0.0176886 -0.000241176 -9.19023e-05 1.63097
0.545 0.015 -0.017453 -0.000246529 -9.06833e-05 1.60906
0.55 0.015 -0.0172125 -0.000251613 -8.94382e-05 1.58675
0.555 0.015 -0.0169674 -0.000256423 -8.81683e-05 1.56406
0.56 0.015 -0.0167181 -0.000260957 -8.68751e-05 1.541
0.565 0.015 -0.0164646 -0.000265211 -8.55599e-05 1.51761
0.57 0.015 -0.0162074 -0.000269185 -8.4224e-05 1.4939
0.575 0.015 -0.0159466 -0.000272877 -8.28691e-05 1.46989
0.58 0.015 -0.0156826 -0.000276287 -8.14963e-05 1.44561
0.585 0.015 -0.0154156 -0.000279417 -8.01072e-05 1.42108
0.59 0.015 -0.0151458 -0.000282267 -7.87031e-05 1.39633
0.595 0.015 -0.0148735 -0.00028484 -7.72855e-05 1.37137
0.6 0.015 -0.014599 -0.000287138 -7.58557e-05 1.34623
0.605 0.015 -0.0143225 -0.000289164 -7.44151e-05 1.32092
0.61 0.015 -0.0140443 -0.000290923 -7.2965e-05 1.29548
0.615 0.015 -0.0137646 -0.000292418 -7.15067e-05 1.26992
0.62 0.015 -0.0134837 -0.000293654 -7.00416e-05 1.24426
0.625 0.015 -0.0132018 -0.000294637 -6.8571e-05 1.21852
0.63 0.015 -0.0129191 -0.000295371 -6.70961e-05 1.19273
0.635 0.015 -0.0126359 -0.000295863 -6.56181e-05 1.16689
0.64 0.015 -0.0123524 -0.000296118 -6.41382e-05 1.14104
0.645 0.015 -0.0120688 -0.000296143 -6.26576e-05 1.11519
0.65 0.015 -0.0117853 -0.000295945 -6.11774e-05 1.08935
0.655 0.015 -0.0115021 -0.00029553 -5.96988e-05 1.06355
0.66 0.015 -0.0112194 -0.000294905 -5.82228e-05 1.03779
0.665 0.015 -0.0109375 -0.000294076 -5.67504e-05 1.01211
0.67 0.015 -0.0106564 -0.000293051 -5.52826e-05 0.98651
0.675 0.015 -0.0103765 -0.000291836 -5.38204e-05 0.961009
0.68 0.015 -0.0100978 -0.000290439 -5.23648e-05 0.935622
0.685 0.015 -0.00982049 -0.000288866 -5.09166e-05 0.910364
0.69 0.015 -0.00954478 -0.000287123 -4.94766e-05 0.885248
0.695 0.015 -0.00927081 -0.000285218 -4.80458e-05 0.860288
0.7 0.015 -0.00899873 -0.000283157 -4.66249e-05 0.835497
0.705 0.015 -0.00872868 -0.000280945 -4.52147e-05 0.810886
0.71 0.015 -0.00846079 -0.000278589 -4.38158e-05 0.786469
0.715 0.015 -0.0081952 -0.000276095 -4.24292e-05 0.762256
0.72 0.015 -0.00793204 -0.000273469 -4.10553e-05 0.738259
0.725 0.015 -0.00767143 -0.000270714 -3.96948e-05 0.714489
0.73 0.015 -0.00741348 -0.000267838 -3.83484e-05 0.690955
0.735 0.015 -0.00715832 -0.000264844 -3.70167e-05 0.667668
0.74 0.015 -0.00690604 -0.000261736 -3.57003e-05 0.644637
0.745 0.015 -0.00665676 -0.000258519 -3.43996e-05 0.621872
0.75 0.015 -0.00641057 -0.000255198 -3.31153e-05 0.599382
0.755 0.015 -0.00616757 -0.000251774 -3.18479e-05 0.577176
0.76 0.015 -0.00592786 -0.000248252 -3.05978e-05 0.555262
0.765 0.015 -0.00569154 -0.000244634 -2.93655e-05 0.533649
0.77 0.015 -0.00545868 -0.000240923 -2.81516e-05 0.512345
0.775 0.015 -0.00522938 -0.000237121 -2.69565e-05 0.491357
0.78 0.015 -0.00500373 -0.00023323 -2.57805e-05 0.470695
0.785 0.015 -0.00478181 -0.000229252 -2.46243e-05 0.450364
0.79 0.015 -0.0045637 -0.000225187 -2.34881e-05 0.430374
0.795 0.015 -0.00434948 -0.000221038 -2.23725e-05 0.410732
0.8 0.015 -0.00413925 -0.000216804 -2.12779e-05 0.391446
0.805 0.015 -0.00393306 -0.000212487 -2.02046e-05 0.372522
0.81 0.015 -0.00373102 -0.000208085 -1.91531e-05 0.353969