Title=" Lid Driven Flow"
VARIABLES="X","Y","U","V","psi","xi"
ZONE T= "BOX", I= 201, J=201, F=POINT
0 0 0 0 0.00344903 0
0.005 0 0 0 0 0
0.01 0 0 0 0 0
0.015 0 0 0 0 161.891
0.02 0 0 0 0 176.121
0.025 0 0 0 0 155.598
0.03 0 0 0 0 133.203
0.035 0 0 0 0 115.678
0.04 0 0 0 0 102.821
0.045 0 0 0 0 93.2854
0.05 0 0 0 0 85.9626
0.055 0 0 0 0 80.1194
0.06 0 0 0 0 75.2972
0.065 0 0 0 0 71.207
0.07 0 0 0 0 67.661
0.075 0 0 0 0 64.5326
0.08 0 0 0 0 61.7334
0.085 0 0 0 0 59.1997
0.09 0 0 0 0 56.8846
0.095 0 0 0 0 54.7529
0.1 0 0 0 0 52.7775
0.105 0 0 0 0 50.9373
0.11 0 0 0 0 49.2157
0.115 0 0 0 0 47.599
0.12 0 0 0 0 46.0766
0.125 0 0 0 0 44.6391
0.13 0 0 0 0 43.279
0.135 0 0 0 0 41.9898
0.14 0 0 0 0 40.7659
0.145 0 0 0 0 39.6024
0.15 0 0 0 0 38.4948
0.155 0 0 0 0 37.4393
0.16 0 0 0 0 36.4324
0.165 0 0 0 0 35.4708
0.17 0 0 0 0 34.5517
0.175 0 0 0 0 33.6723
0.18 0 0 0 0 32.8301
0.185 0 0 0 0 32.0226
0.19 0 0 0 0 31.2478
0.195 0 0 0 0 30.5036
0.2 0 0 0 0 29.7879
0.205 0 0 0 0 29.099
0.21 0 0 0 0 28.4352
0.215 0 0 0 0 27.7947
0.22 0 0 0 0 27.1761
0.225 0 0 0 0 26.5779
0.23 0 0 0 0 25.9987
0.235 0 0 0 0 25.4372
0.24 0 0 0 0 24.8923
0.245 0 0 0 0 24.3626
0.25 0 0 0 0 23.8472
0.255 0 0 0 0 23.345
0.26 0 0 0 0 22.8551
0.265 0 0 0 0 22.3764
0.27 0 0 0 0 21.9083
0.275 0 0 0 0 21.4498
0.28 0 0 0 0 21.0002
0.285 0 0 0 0 20.5589
0.29 0 0 0 0 20.1251
0.295 0 0 0 0 19.6982
0.3 0 0 0 0 19.2777
0.305 0 0 0 0 18.8631
0.31 0 0 0 0 18.4539
0.315 0 0 0 0 18.0496
0.32 0 0 0 0 17.6499
0.325 0 0 0 0 17.2543
0.33 0 0 0 0 16.8626
0.335 0 0 0 0 16.4744
0.34 0 0 0 0 16.0895
0.345 0 0 0 0 15.7076
0.35 0 0 0 0 15.3286
0.355 0 0 0 0 14.9523
0.36 0 0 0 0 14.5785
0.365 0 0 0 0 14.2071
0.37 0 0 0 0 13.838
0.375 0 0 0 0 13.4713
0.38 0 0 0 0 13.1067
0.385 0 0 0 0 12.7444
0.39 0 0 0 0 12.3842
0.395 0 0 0 0 12.0264
0.4 0 0 0 0 11.6708
0.405 0 0 0 0 11.3176
0.41 0 0 0 0 10.9669
0.415 0 0 0 0 10.6188
0.42 0 0 0 0 10.2733
0.425 0 0 0 0 9.93071
0.43 0 0 0 0 9.59107
0.435 0 0 0 0 9.25456
0.44 0 0 0 0 8.92136
0.445 0 0 0 0 8.59166
0.45 0 0 0 0 8.26564
0.455 0 0 0 0 7.9435
0.46 0 0 0 0 7.62544
0.465 0 0 0 0 7.31168
0.47 0 0 0 0 7.00241
0.475 0 0 0 0 6.69785
0.48 0 0 0 0 6.3982
0.485 0 0 0 0 6.10368
0.49 0 0 0 0 5.81448
0.495 0 0 0 0 5.53081
0.5 0 0 0 0 5.25286
0.505 0 0 0 0 4.9808
0.51 0 0 0 0 4.71482
0.515 0 0 0 0 4.45509
0.52 0 0 0 0 4.20175
0.525 0 0 0 0 3.95495
0.53 0 0 0 0 3.71482
0.535 0 0 0 0 3.48147
0.54 0 0 0 0 3.25501
0.545 0 0 0 0 3.03552
0.55 0 0 0 0 2.82307
0.555 0 0 0 0 2.61771
0.56 0 0 0 0 2.41949
0.565 0 0 0 0 2.22842
0.57 0 0 0 0 2.04451
0.575 0 0 0 0 1.86775
0.58 0 0 0 0 1.69811
0.585 0 0 0 0 1.53555
0.59 0 0 0 0 1.38
0.595 0 0 0 0 1.23141
0.6 0 0 0 0 1.08967
0.605 0 0 0 0 0.954694
0.61 0 0 0 0 0.826365
0.615 0 0 0 0 0.704561
0.62 0 0 0 0 0.589145
0.625 0 0 0 0 0.479974
0.63 0 0 0 0 0.376894
0.635 0 0 0 0 0.279744
0.64 0 0 0 0 0.188356
0.645 0 0 0 0 0.102556
0.65 0 0 0 0 0.0221644
0.655 0 0 0 0 -0.0530013
0.66 0 0 0 0 -0.123128
0.665 0 0 0 0 -0.188404
0.67 0 0 0 0 -0.24902
0.675 0 0 0 0 -0.305168
0.68 0 0 0 0 -0.357041
0.685 0 0 0 0 -0.404831
0.69 0 0 0 0 -0.448732
0.695 0 0 0 0 -0.488936
0.7 0 0 0 0 -0.525634
0.705 0 0 0 0 -0.559016
0.71 0 0 0 0 -0.589274
0.715 0 0 0 0 -0.616594
0.72 0 0 0 0 -0.641162
0.725 0 0 0 0 -0.663164
0.73 0 0 0 0 -0.682778
0.735 0 0 0 0 -0.700184
0.74 0 0 0 0 -0.715554
0.745 0 0 0 0 -0.729055
0.75 0 0 0 0 -0.740848
0.755 0 0 0 0 -0.751087
0.76 0 0 0 0 -0.759915
0.765 0 0 0 0 -0.767465
0.77 0 0 0 0 -0.773859
0.775 0 0 0 0 -0.779204
0.78 0 0 0 0 -0.783592
0.785 0 0 0 0 -0.7871
0.79 0 0 0 0 -0.789787
0.795 0 0 0 0 -0.791696
0.8 0 0 0 0 -0.792849
0.805 0 0 0 0 -0.79325
0.81 0 0 0 0 -0.792887
0.815 0 0 0 0 -0.791728
0.82 0 0 0 0 -0.789724
0.825 0 0 0 0 -0.78681
0.83 0 0 0 0 -0.78291
0.835 0 0 0 0 -0.777932
0.84 0 0 0 0 -0.771778
0.845 0 0 0 0 -0.764339
0.85 0 0 0 0 -0.755506
0.855 0 0 0 0 -0.745166
0.86 0 0 0 0 -0.73321
0.865 0 0 0 0 -0.719534
0.87 0 0 0 0 -0.704044
0.875 0 0 0 0 -0.686658
0.88 0 0 0 0 -0.667312
0.885 0 0 0 0 -0.645962
0.89 0 0 0 0 -0.622587
0.895 0 0 0 0 -0.597192
0.9 0 0 0 0 -0.569814
0.905 0 0 0 0 -0.54052
0.91 0 0 0 0 -0.509416
0.915 0 0 0 0 -0.47664
0.92 0 0 0 0 -0.442373
0.925 0 0 0 0 -0.406835
0.93 0 0 0 0 -0.370286
0.935 0 0 0 0 -0.333029
0.94 0 0 0 0 -0.29541
0.945 0 0 0 0 -0.257815
0.95 0 0 0 0 -0.220674
0.955 0 0 0 0 -0.184457
0.96 0 0 0 0 -0.149676
0.965 0 0 0 0 -0.116885
0.97 0 0 0 0 -0.0866734
0.975 0 0 0 0 -0.0596693
0.98 0 0 0 0 -0.0365258
0.985 0 0 0 0 -0.0179024
0.99 0 0 0 0 -0.00441552
0.995 0 0 0 0 0.00347767
1 0 0 0 0 0.00575327
0 0.005 0 0 0 0
0.005 0.005 0 0 0 0
0.01 0.005 0 0 0 73.7283
0.015 0.005 0 0 0 62.075
0.02 0.005 0 0 0 45.7361
0.025 0.005 0 0 0 33.975
0.03 0.005 0 0 0 26.0765
0.035 0.005 0 0 0 20.6399
0.04 0.005 0 0 0 16.7254
0.045 0.005 0 0 0 13.7834
0.05 0.005 0 0 0 11.4962
0.055 0.005 0 0 0 9.67368
0.06 0.005 0 0 0 8.19616
0.065 0.005 0 0 0 6.98425
0.07 0.005 0 0 0 5.98238
0.075 0.005 0 0 0 5.14991
0.08 0.005 0 0 0 4.45599
0.085 0.005 0 0 0 3.87654
0.09 0.005 0 0 0 3.39232
0.095 0.005 0 0 0 2.98776
0.1 0.005 0 0 0 2.65006
0.105 0.005 0 0 0 2.36867
0.11 0.005 0 0 0 2.13484
0.115 0.005 0 0 0 1.94125
0.12 0.005 0 0 0 1.78181
0.125 0.005 0 0 0 1.65142
0.13 0.005 0 0 0 1.54579
0.135 0.005 0 0 0 1.46137
0.14 0.005 0 0 0 1.39514
0.145 0.005 0 0 0 1.34462
0.15 0.005 0 0 0 1.3077
0.155 0.005 0 0 0 1.28264
0.16 0.005 0 0 0 1.26795
0.165 0.005 0 0 0 1.26243
0.17 0.005 0 0 0 1.26504
0.175 0.005 0 0 0 1.27494
0.18 0.005 0 0 0 1.29141
0.185 0.005 0 0 0 1.31385
0.19 0.005 0 0 0 1.34177
0.195 0.005 0 0 0 1.37475
0.2 0.005 0 0 0 1.41245
0.205 0.005 0 0 0 1.45455
0.21 0.005 0 0 0 1.50082
0.215 0.005 0 0 0 1.55104
0.22 0.005 0 0 0 1.60502
0.225 0.005 0 0 0 1.66261
0.23 0.005 0 0 0 1.72365
0.235 0.005 0 0 0 1.78802
0.24 0.005 0 0 0 1.85561
0.245 0.005 0 0 0 1.9263
0.25 0.005 0 0 0 1.99998
0.255 0.005 0 0 0 2.07657
0.26 0.005 0 0 0 2.15595
0.265 0.005 0 0 0 2.23803
0.27 0.005 0 0 0 2.32271
0.275 0.005 0 0 0 2.4099
0.28 0.005 0 0 0 2.49948
0.285 0.005 0 0 0 2.59135
0.29 0.005 0 0 0 2.68539
0.295 0.005 0 0 0 2.7815
0.3 0.005 0 0 0 2.87955
0.305 0.005 0 0 0 2.97942
0.31 0.005 0 0 0 3.08097
0.315 0.005 0 0 0 3.18407
0.32 0.005 0 0 0 3.28858
0.325 0.005 0 0 0 3.39435
0.33 0.005 0 0 0 3.50123
0.335 0.005 0 0 0 3.60905
0.34 0.005 0 0 0 3.71766
0.345 0.005 0 0 0 3.82688
0.35 0.005 0 0 0 3.93654
0.355 0.005 0 0 0 4.04645
0.36 0.005 0 0 0 4.15643
0.365 0.005 0 0 0 4.2663
0.37 0.005 0 0 0 4.37585
0.375 0.005 0 0 0 4.48489
0.38 0.005 0 0 0 4.59321
0.385 0.005 0 0 0 4.70062
0.39 0.005 0 0 0 4.80689
0.395 0.005 0 0 0 4.91183
0.4 0.005 0 0 0 5.01521
0.405 0.005 0 0 0 5.11683
0.41 0.005 0 0 0 5.21646
0.415 0.005 0 0 0 5.3139
0.42 0.005 0 0 0 5.40892
0.425 0.005 0 0 0 5.50131
0.43 0.005 0 0 0 5.59085
0.435 0.005 0 0 0 5.67733
0.44 0.005 0 0 0 5.76054
0.445 0.005 0 0 0 5.84027
0.45 0.005 0 0 0 5.91632
0.455 0.005 0 0 0 5.98847
0.46 0.005 0 0 0 6.05654
0.465 0.005 0 0 0 6.12033
0.47 0.005 0 0 0 6.17966
0.475 0.005 0 0 0 6.23434
0.48 0.005 0 0 0 6.2842
0.485 0.005 0 0 0 6.32907
0.49 0.005 0 0 0 6.3688
0.495 0.005 0 0 0 6.40323
0.5 0.005 0 0 0 6.43222
0.505 0.005 0 0 0 6.45565
0.51 0.005 0 0 0 6.47339
0.515 0.005 0 0 0 6.48534
0.52 0.005 0 0 0 6.49139
0.525 0.005 0 0 0 6.49147
0.53 0.005 0 0 0 6.48549
0.535 0.005 0 0 0 6.4734
0.54 0.005 0 0 0 6.45515
0.545 0.005 0 0 0 6.43072
0.55 0.005 0 0 0 6.40008
0.555 0.005 0 0 0 6.36324
0.56 0.005 0 0 0 6.32021
0.565 0.005 0 0 0 6.27101
0.57 0.005 0 0 0 6.21569
0.575 0.005 0 0 0 6.15432
0.58 0.005 0 0 0 6.08697
0.585 0.005 0 0 0 6.01374
0.59 0.005 0 0 0 5.93475
0.595 0.005 0 0 0 5.8501
0.6 0.005 0 0 0 5.75996
0.605 0.005 0 0 0 5.66449
0.61 0.005 0 0 0 5.56385
0.615 0.005 0 0 0 5.45825
0.62 0.005 0 0 0 5.34789
0.625 0.005 0 0 0 5.233
0.63 0.005 0 0 0 5.11381
0.635 0.005 0 0 0 4.99057
0.64 0.005 0 0 0 4.86356
0.645 0.005 0 0 0 4.73304
0.65 0.005 0 0 0 4.59931
0.655 0.005 0 0 0 4.46266
0.66 0.005 0 0 0 4.3234
0.665 0.005 0 0 0 4.18186
0.67 0.005 0 0 0 4.03834
0.675 0.005 0 0 0 3.8932
0.68 0.005 0 0 0 3.74674
0.685 0.005 0 0 0 3.59933
0.69 0.005 0 0 0 3.45129
0.695 0.005 0 0 0 3.30297
0.7 0.005 0 0 0 3.1547
0.705 0.005 0 0 0 3.00682
0.71 0.005 0 0 0 2.85967
0.715 0.005 0 0 0 2.71357
0.72 0.005 0 0 0 2.56885
0.725 0.005 0 0 0 2.42581
0.73 0.005 0 0 0 2.28477
0.735 0.005 0 0 0 2.14601
0.74 0.005 0 0 0 2.00982
0.745 0.005 0 0 0 1.87647
0.75 0.005 0 0 0 1.7462
0.755 0.005 0 0 0 1.61926
0.76 0.005 0 0 0 1.49587
0.765 0.005 0 0 0 1.37624
0.77 0.005 0 0 0 1.26055
0.775 0.005 0 0 0 1.14897
0.78 0.005 0 0 0 1.04166
0.785 0.005 0 0 0 0.938735
0.79 0.005 0 0 0 0.840319
0.795 0.005 0 0 0 0.746501
0.8 0.005 0 0 0 0.657353
0.805 0.005 0 0 0 0.57293
0.81 0.005 0 0 0 0.493267
0.815 0.005 0 0 0 0.418378
0.82 0.005 0 0 0 0.348263
0.825 0.005 0 0 0 0.282902
0.83 0.005 0 0 0 0.222258
0.835 0.005 0 0 0 0.16628
0.84 0.005 0 0 0 0.1149
0.845 0.005 0 0 0 0.0680364
0.85 0.005 0 0 0 0.0255957
0.855 0.005 0 0 0 -0.0125287
0.86 0.005 0 0 0 -0.0464538
0.865 0.005 0 0 0 -0.0763069
0.87 0.005 0 0 0 -0.102223
0.875 0.005 0 0 0 -0.124347
0.88 0.005 0 0 0 -0.142828
0.885 0.005 0 0 0 -0.157822
0.89 0.005 0 0 0 -0.169489
0.895 0.005 0 0 0 -0.177995
0.9 0.005 0 0 0 -0.183508
0.905 0.005 0 0 0 -0.186201
0.91 0.005 0 0 0 -0.186248
0.915 0.005 0 0 0 -0.183828
0.92 0.005 0 0 0 -0.179123
0.925 0.005 0 0 0 -0.17232
0.93 0.005 0 0 0 -0.163613
0.935 0.005 0 0 0 -0.153204
0.94 0.005 0 0 0 -0.141305
0.945 0.005 0 0 0 -0.128142
0.95 0.005 0 0 0 -0.113962
0.955 0.005 0 0 0 -0.0990354
0.96 0.005 0 0 0 -0.0836651
0.965 0.005 0 0 0 -0.0681952
0.97 0.005 0 0 0 -0.0530219
0.975 0.005 0 0 0 -0.0386068
0.98 0.005 0 0 0 -0.0254899
0.985 0.005 0 0 0 -0.0142978
0.99 0.005 0 0 0 -0.00573013
0.995 0.005 0 0 0 -0.000471254
1 0.005 0 0 0 0.00112438
0 0.01 0 0 0.00112438 0
0.005 0.01 0 0 0 -326.272
0.01 0.01 -0.180049 0.0775937 -0.000921604 -44.3996
0.015 0.01 -0.184879 -0.0349902 -0.000775937 9.53379
0.02 0.01 -0.156416 -0.035125 -0.000571702 19.1193
0.025 0.01 -0.127588 -0.0245746 -0.000424688 18.9914
0.03 0.01 -0.104171 -0.0166688 -0.000325956 16.823
0.035 0.01 -0.0859172 -0.0116889 -0.000257999 14.4879
0.04 0.01 -0.0716344 -0.00857063 -0.000209067 12.4147
0.045 0.01 -0.0602838 -0.00653643 -0.000172293 10.6575
0.05 0.01 -0.0511145 -0.00513719 -0.000143703 9.18188
0.055 0.01 -0.0436053 -0.0041251 -0.000120921 7.94097
0.06 0.01 -0.0373916 -0.0033618 -0.000102452 6.8933
0.065 0.01 -0.032212 -0.00276723 -8.73031e-05 6.00556
0.07 0.01 -0.0278727 -0.00229292 -7.47797e-05 5.25141
0.075 0.01 -0.024226 -0.00190798 -6.43738e-05 4.60978
0.08 0.01 -0.0211559 -0.00159171 -5.56999e-05 4.06361
0.085 0.01 -0.0185694 -0.00132958 -4.84568e-05 3.59884
0.09 0.01 -0.0163906 -0.00111098 -4.2404e-05 3.20376
0.095 0.01 -0.014557 -0.000927834 -3.73469e-05 2.86847
0.1 0.01 -0.0130163 -0.000773851 -3.31257e-05 2.58461
0.105 0.01 -0.0117248 -0.000644018 -2.96084e-05 2.34503
0.11 0.01 -0.0106459 -0.000534273 -2.66855e-05 2.14362
0.115 0.01 -0.00974837 -0.000441283 -2.42657e-05 1.97517
0.12 0.01 -0.00900621 -0.000362296 -2.22727e-05 1.83519
0.125 0.01 -0.00839725 -0.000295025 -2.06427e-05 1.71987
0.13 0.01 -0.00790281 -0.000237561 -1.93224e-05 1.62593
0.135 0.01 -0.00750711 -0.000188307 -1.82671e-05 1.55058
0.14 0.01 -0.00719679 -0.000145927 -1.74393e-05 1.49142
0.145 0.01 -0.00696061 -0.000109299 -1.68078e-05 1.44642
0.15 0.01 -0.00678908 -7.74825e-05 -1.63463e-05 1.41385
0.155 0.01 -0.00667419 -4.96897e-05 -1.60329e-05 1.39223
0.16 0.01 -0.00660919 -2.52592e-05 -1.58494e-05 1.3803
0.165 0.01 -0.0065884 -3.63731e-06 -1.57803e-05 1.377
0.17 0.01 -0.00660706 1.56393e-05 -1.5813e-05 1.38142
0.175 0.01 -0.00666112 3.29578e-05 -1.59367e-05 1.3928
0.18 0.01 -0.00674721 4.86409e-05 -1.61426e-05 1.41047
0.185 0.01 -0.00686248 6.29574e-05 -1.64231e-05 1.43388
0.19 0.01 -0.00700451 7.61299e-05 -1.67721e-05 1.46256
0.195 0.01 -0.00717127 8.83429e-05 -1.71844e-05 1.49611
0.2 0.01 -0.00736104 9.97481e-05 -1.76556e-05 1.53418
0.205 0.01 -0.00757235 0.00011047 -1.81819e-05 1.57647
0.21 0.01 -0.00780393 0.00012061 -1.87603e-05 1.62273
0.215 0.01 -0.0080547 0.000130251 -1.9388e-05 1.67272
0.22 0.01 -0.0083237 0.000139458 -2.00628e-05 1.72626
0.225 0.01 -0.00861009 0.000148285 -2.07826e-05 1.78316
0.23 0.01 -0.00891314 0.000156771 -2.15456e-05 1.84327
0.235 0.01 -0.00923214 0.000164949 -2.23503e-05 1.90644
0.24 0.01 -0.00956649 0.000172843 -2.31951e-05 1.97254
0.245 0.01 -0.00991558 0.000180469 -2.40787e-05 2.04143
0.25 0.01 -0.0102789 0.000187838 -2.49998e-05 2.11301
0.255 0.01 -0.0106558 0.000194959 -2.59571e-05 2.18715
0.26 0.01 -0.0110458 0.000201832 -2.69494e-05 2.26373
0.265 0.01 -0.0114484 0.000208458 -2.79754e-05 2.34264
0.27 0.01 -0.0118631 0.000214834 -2.90339e-05 2.42378
0.275 0.01 -0.0122893 0.000220953 -3.01237e-05 2.50701
0.28 0.01 -0.0127264 0.000226809 -3.12435e-05 2.59223
0.285 0.01 -0.0131739 0.000232393 -3.23918e-05 2.67932
0.29 0.01 -0.0136313 0.000237693 -3.35674e-05 2.76815
0.295 0.01 -0.0140978 0.000242698 -3.47688e-05 2.8586
0.3 0.01 -0.014573 0.000247397 -3.59944e-05 2.95054
0.305 0.01 -0.015056 0.000251775 -3.72427e-05 3.04384
0.31 0.01 -0.0155464 0.000255819 -3.85121e-05 3.13835
0.315 0.01 -0.0160433 0.000259515 -3.98009e-05 3.23394
0.32 0.01 -0.016546 0.00026285 -4.11073e-05 3.33047
0.325 0.01 -0.0170539 0.000265808 -4.24294e-05 3.42777
0.33 0.01 -0.0175662 0.000268375 -4.37654e-05 3.5257
0.335 0.01 -0.0180819 0.000270538 -4.51132e-05 3.62411
0.34 0.01 -0.0186004 0.000272282 -4.64708e-05 3.72282
0.345 0.01 -0.0191209 0.000273594 -4.7836e-05 3.82168
0.35 0.01 -0.0196423 0.000274461 -4.92067e-05 3.92052
0.355 0.01 -0.0201639 0.00027487 -5.05806e-05 4.01915
0.36 0.01 -0.0206848 0.000274809 -5.19554e-05 4.11742
0.365 0.01 -0.021204 0.000274268 -5.33287e-05 4.21514
0.37 0.01 -0.0217206 0.000273236 -5.46981e-05 4.31213
0.375 0.01 -0.0222336 0.000271702 -5.60611e-05 4.40821
0.38 0.01 -0.0227422 0.000269659 -5.74152e-05 4.5032
0.385 0.01 -0.0232452 0.000267098 -5.87577e-05 4.59691
0.39 0.01 -0.0237418 0.000264013 -6.00862e-05 4.68915
0.395 0.01 -0.0242309 0.000260399 -6.13979e-05 4.77975
0.4 0.01 -0.0247115 0.00025625 -6.26902e-05 4.86851
0.405 0.01 -0.0251827 0.000251563 -6.39604e-05 4.95525
0.41 0.01 -0.0256434 0.000246336 -6.52058e-05 5.03978
0.415 0.01 -0.0260926 0.000240568 -6.64238e-05 5.12192
0.42 0.01 -0.0265293 0.000234259 -6.76115e-05 5.20149
0.425 0.01 -0.0269526 0.000227412 -6.87664e-05 5.2783
0.43 0.01 -0.0273614 0.000220028 -6.98857e-05 5.35219
0.435 0.01 -0.0277548 0.000212113 -7.09667e-05 5.42296
0.44 0.01 -0.0281319 0.000203673 -7.20068e-05 5.49046
0.445 0.01 -0.0284916 0.000194714 -7.30035e-05 5.55452
0.45 0.01 -0.0288331 0.000185246 -7.3954e-05 5.61497
0.455 0.01 -0.0291554 0.000175278 -7.48559e-05 5.67165
0.46 0.01 -0.0294577 0.000164822 -7.57068e-05 5.72441
0.465 0.01 -0.0297392 0.000153892 -7.65042e-05 5.77311
0.47 0.01 -0.0299989 0.000142502 -7.72458e-05 5.8176
0.475 0.01 -0.0302362 0.000130669 -7.79293e-05 5.85774
0.48 0.01 -0.0304503 0.00011841 -7.85525e-05 5.89341
0.485 0.01 -0.0306403 0.000105744 -7.91134e-05 5.92449
0.49 0.01 -0.0308058 9.26932e-05 -7.961e-05 5.95087
0.495 0.01 -0.030946 7.92793e-05 -8.00404e-05 5.97244
0.5 0.01 -0.0310603 6.55262e-05 -8.04028e-05 5.98911
0.505 0.01 -0.0311482 5.14594e-05 -8.06957e-05 6.00078
0.51 0.01 -0.0312092 3.71059e-05 -8.09175e-05 6.00739
0.515 0.01 -0.0312429 2.24939e-05 -8.10668e-05 6.00886
0.52 0.01 -0.0312488 7.65332e-06 -8.11424e-05 6.00514
0.525 0.01 -0.0312267 -7.38471e-06 -8.11434e-05 5.99618
0.53 0.01 -0.0311762 -2.25877e-05 -8.10687e-05 5.98195
0.535 0.01 -0.0310973 -3.79218e-05 -8.09175e-05 5.96242
0.54 0.01 -0.0309896 -5.33522e-05 -8.06895e-05 5.93758
0.545 0.01 -0.0308531 -6.88426e-05 -8.03841e-05 5.90743
0.55 0.01 -0.0306879 -8.43559e-05 -8.00011e-05 5.87198
0.555 0.01 -0.030494 -9.9854e-05 -7.95406e-05 5.83124
0.56 0.01 -0.0302714 -0.000115298 -7.90026e-05 5.78527
0.565 0.01 -0.0300204 -0.000130648 -7.83876e-05 5.73409
0.57 0.01 -0.0297413 -0.000145863 -7.76962e-05 5.67778
0.575 0.01 -0.0294343 -0.000160903 -7.69291e-05 5.61641
0.58 0.01 -0.0291 -0.000175726 -7.60872e-05 5.55006
0.585 0.01 -0.0287387 -0.000190292 -7.51719e-05 5.47884
0.59 0.01 -0.028351 -0.000204557 -7.41844e-05 5.40284
0.595 0.01 -0.0279376 -0.000218482 -7.31263e-05 5.3222
0.6 0.01 -0.0274992 -0.000232025 -7.19996e-05 5.23705
0.605 0.01 -0.0270365 -0.000245144 -7.08062e-05 5.14755
0.61 0.01 -0.0265504 -0.000257802 -6.95482e-05 5.05384
0.615 0.01 -0.0260418 -0.000269957 -6.82282e-05 4.9561
0.62 0.01 -0.0255117 -0.000281572 -6.68487e-05 4.85451
0.625 0.01 -0.0249611 -0.000292611 -6.54125e-05 4.74928
0.63 0.01 -0.0243911 -0.000303037 -6.39226e-05 4.64059
0.635 0.01 -0.0238029 -0.000312818 -6.23822e-05 4.52868
0.64 0.01 -0.0231977 -0.000321922 -6.07945e-05 4.41375
0.645 0.01 -0.0225767 -0.000330319 -5.9163e-05 4.29605
0.65 0.01 -0.0219414 -0.000337981 -5.74914e-05 4.17581
0.655 0.01 -0.0212931 -0.000344884 -5.57833e-05 4.05328
0.66 0.01 -0.0206332 -0.000351006 -5.40426e-05 3.92871
0.665 0.01 -0.019963 -0.000356327 -5.22733e-05 3.80238
0.67 0.01 -0.0192842 -0.000360831 -5.04794e-05 3.67453
0.675 0.01 -0.0185982 -0.000364504 -4.8665e-05 3.54544
0.68 0.01 -0.0179066 -0.000367337 -4.68343e-05 3.41539
0.685 0.01 -0.0172107 -0.000369323 -4.49917e-05 3.28465
0.69 0.01 -0.0165123 -0.000370459 -4.31412e-05 3.15348
0.695 0.01 -0.0158128 -0.000370746 -4.12871e-05 3.02218
0.7 0.01 -0.0151138 -0.000370186 -3.94337e-05 2.89101
0.705 0.01 -0.0144168 -0.000368789 -3.75853e-05 2.76024
0.71 0.01 -0.0137232 -0.000366565 -3.57459e-05 2.63016
0.715 0.01 -0.0130347 -0.00036353 -3.39196e-05 2.50101
0.72 0.01 -0.0123527 -0.0003597 -3.21106e-05 2.37307
0.725 0.01 -0.0116785 -0.000355099 -3.03227e-05 2.24658
0.73 0.01 -0.0110136 -0.000349751 -2.85596e-05 2.1218
0.735 0.01 -0.0103592 -0.000343686 -2.68252e-05 1.99897
0.74 0.01 -0.00971679 -0.000336933 -2.51228e-05 1.87831
0.745 0.01 -0.00908743 -0.000329528 -2.34559e-05 1.76005
0.75 0.01 -0.00847232 -0.000321507 -2.18275e-05 1.64439
0.755 0.01 -0.00787256 -0.00031291 -2.02408e-05 1.53154
0.76 0.01 -0.00728917 -0.000303778 -1.86984e-05 1.42167
0.765 0.01 -0.0067231 -0.000294155 -1.7203e-05 1.31497
0.77 0.01 -0.00617521 -0.000284087 -1.57569e-05 1.21159
0.775 0.01 -0.00564629 -0.000273618 -1.43622e-05 1.11168
0.78 0.01 -0.00513705 -0.000262798 -1.30207e-05 1.01536
0.785 0.01 -0.00464811 -0.000251674 -1.17342e-05 0.92276
0.79 0.01 -0.00417999 -0.000240294 -1.0504e-05 0.833975
0.795 0.01 -0.00373314 -0.000228708 -9.33126e-06 0.74909
0.8 0.01 -0.00330792 -0.000216963 -8.21691e-06 0.668176
0.805 0.01 -0.0029046 -0.000205108 -7.16163e-06 0.591288
0.81 0.01 -0.00252336 -0.00019319 -6.16583e-06 0.518466
0.815 0.01 -0.00216431 -0.000181254 -5.22973e-06 0.449734
0.82 0.01 -0.00182747 -0.000169345 -4.35329e-06 0.385103
0.825 0.01 -0.00151278 -0.000157506 -3.53627e-06 0.324568
0.83 0.01 -0.00122009 -0.000145777 -2.77822e-06 0.268111
0.835 0.01 -0.000949202 -0.000134198 -2.07849e-06 0.2157
0.84 0.01 -0.00069983 -0.000122804 -1.43624e-06 0.167291
0.845 0.01 -0.000471631 -0.000111629 -8.50448e-07 0.122828
0.85 0.01 -0.000264195 -0.000100706 -3.19939e-07 0.082241
0.855 0.01 -7.70594e-05 -9.00612e-05 1.56615e-07 0.0454524
0.86 0.01 9.02934e-05 -7.97221e-05 5.8068e-07 0.012373
0.865 0.01 0.000238428 -6.97113e-05 9.53843e-07 -0.0170956
0.87 0.01 0.000367951 -6.00496e-05 1.2778e-06 -0.04306
0.875 0.01 0.000479509 -5.07547e-05 1.55435e-06 -0.0656348
0.88 0.01 0.000573783 -4.18423e-05 1.78536e-06 -0.0849415
0.885 0.01 0.000651483 -3.33256e-05 1.97278e-06 -0.101108
0.89 0.01 0.000713346 -2.52161e-05 2.11862e-06 -0.114269
0.895 0.01 0.000760134 -1.75236e-05 2.22494e-06 -0.124562
0.9 0.01 0.000792629 -1.02567e-05 2.29386e-06 -0.132133
0.905 0.01 0.000811634 -3.42374e-06 2.32752e-06 -0.137129
0.91 0.01 0.000817971 2.96722e-06 2.3281e-06 -0.139707
0.915 0.01 0.000812483 8.90707e-06 2.29785e-06 -0.140023
0.92 0.01 0.000796036 1.4385e-05 2.23904e-06 -0.138242
0.925 0.01 0.000769523 1.93872e-05 2.15401e-06 -0.134537
0.93 0.01 0.00073387 2.38956e-05 2.04517e-06 -0.129083
0.935 0.01 0.000690047 2.78865e-05 1.91505e-06 -0.12207
0.94 0.01 0.000639075 3.13281e-05 1.76631e-06 -0.113694
0.945 0.01 0.000582044 3.41787e-05 1.60178e-06 -0.104167
0.95 0.01 0.000520131 3.63834e-05 1.42453e-06 -0.093717
0.955 0.01 0.000454621 3.78713e-05 1.23794e-06 -0.0825912
0.96 0.01 0.000386938 3.85505e-05 1.04582e-06 -0.0710601
0.965 0.01 0.000318671 3.83042e-05 8.52442e-07 -0.0594213
0.97 0.01 0.000251612 3.69856e-05 6.62775e-07 -0.0480019
0.975 0.01 0.000187789 3.44152e-05 4.82586e-07 -0.0371579
0.98 0.01 0.000129484 3.03864e-05 3.18624e-07 -0.0272662
0.985 0.01 7.92137e-05 2.46997e-05 1.78722e-07 -0.0187
0.99 0.01 3.96045e-05 1.72832e-05 7.16267e-08 -0.0117661
0.995 0.01 1.30172e-05 8.56815e-06 5.89063e-09 -0.00656726
1 0.01 5.89446e-07 5.89063e-07 -1.40548e-08 -0.00272018
0 0.015 0 0 -0.000471557 0
0.005 0.015 0 0 0 -255.961
0.01 0.015 -0.152866 0.184879 -0.00180049 -79.252
0.015 0.015 -0.206268 -0.0236325 -0.00184879 -16.6378
0.02 0.015 -0.204629 -0.0572911 -0.00156416 2.30803
0.025 0.015 -0.184613 -0.052245 -0.00127588 7.91494
0.03 0.015 -0.161079 -0.0416705 -0.00104171 9.23603
0.035 0.015 -0.139017 -0.032537 -0.000859172 9.10139
0.04 0.015 -0.119718 -0.0256335 -0.000716344 8.478
0.045 0.015 -0.103225 -0.0205198 -0.000602838 7.71882
0.05 0.015 -0.0892213 -0.0166784 -0.000511145 6.95714
0.055 0.015 -0.077338 -0.0137229 -0.000436053 6.24282
0.06 0.015 -0.0672404 -0.0113934 -0.000373916 5.59263
0.065 0.015 -0.0586476 -0.00951894 -0.00032212 5.00989
0.07 0.015 -0.0513279 -0.00798595 -0.000278727 4.49242
0.075 0.015 -0.0450903 -0.00671678 -0.00024226 4.03584
0.08 0.015 -0.0397759 -0.0056566 -0.000211559 3.63504
0.085 0.015 -0.0352517 -0.00476527 -0.000185694 3.2848
0.09 0.015 -0.0314055 -0.00401242 -0.000163906 2.98007
0.095 0.015 -0.0281419 -0.00337436 -0.00014557 2.71612
0.1 0.015 -0.0253796 -0.00283216 -0.000130163 2.48859
0.105 0.015 -0.0230491 -0.00237042 -0.000117248 2.29347
0.11 0.015 -0.021091 -0.00197645 -0.000106458 2.12716
0.115 0.015 -0.0194543 -0.00163964 -9.74837e-05 1.98639
0.12 0.015 -0.0180954 -0.00135111 -9.00621e-05 1.86828
0.125 0.015 -0.016977 -0.00110339 -8.39725e-05 1.77022
0.13 0.015 -0.0160672 -0.000890143 -7.90281e-05 1.68993
0.135 0.015 -0.0153389 -0.000706019 -7.5071e-05 1.62539
0.14 0.015 -0.0147686 -0.000546486 -7.19679e-05 1.57482
0.145 0.015 -0.0143367 -0.000407704 -6.96061e-05 1.53668
0.15 0.015 -0.0140263 -0.000286423 -6.78908e-05 1.50961
0.155 0.015 -0.0138229 -0.00017989 -6.67418e-05 1.49241
0.16 0.015 -0.0137145 -8.57799e-05 -6.60918e-05 1.48408
0.165 0.015 -0.0136906 -2.1286e-06 -6.5884e-05 1.4837
0.17 0.015 -0.0137424 7.27201e-05 -6.60705e-05 1.49052
0.175 0.015 -0.0138625 0.00014016 -6.66112e-05 1.50386
0.18 0.015 -0.0140446 0.00020136 -6.74721e-05 1.52313
0.185 0.015 -0.0142832 0.000257301 -6.86247e-05 1.54784
0.19 0.015 -0.0145737 0.0003088 -7.00451e-05 1.57754
0.195 0.015 -0.0149123 0.000356539 -7.17127e-05 1.61186
0.2 0.015 -0.0152956 0.00040108 -7.36104e-05 1.65046
0.205 0.015 -0.0157207 0.00044289 -7.57235e-05 1.69305
0.21 0.015 -0.016185 0.000482349 -7.80393e-05 1.73936
0.215 0.015 -0.0166865 0.000519769 -8.0547e-05 1.78918
0.22 0.015 -0.0172232 0.000555399 -8.3237e-05 1.84229
0.225 0.015 -0.0177933 0.00058944 -8.61009e-05 1.8985
0.23 0.015 -0.0183953 0.00062205 -8.91313e-05 1.95765
0.235 0.015 -0.0190278 0.000653352 -9.23214e-05 2.01957
0.24 0.015 -0.0196895 0.000683437 -9.56648e-05 2.08412
0.245 0.015 -0.0203791 0.000712372 -9.91558e-05 2.15116
0.25 0.015 -0.0210955 0.000740204 -0.000102789 2.22054
0.255 0.015 -0.0218374 0.00076696 -0.000106558 2.29213
0.26 0.015 -0.0226037 0.000792654 -0.000110458 2.36581
0.265 0.015 -0.0233934 0.000817285 -0.000114484 2.44145
0.27 0.015 -0.0242052 0.000840844 -0.000118631 2.51892
0.275 0.015 -0.0250381 0.000863313 -0.000122893 2.5981
0.28 0.015 -0.0258908 0.000884665 -0.000127264 2.67884
0.285 0.015 -0.0267623 0.000904868 -0.000131739 2.76103
0.29 0.015 -0.0276512 0.000923886 -0.000136313 2.84453
0.295 0.015 -0.0285563 0.000941678 -0.000140978 2.9292
0.3 0.015 -0.0294764 0.0009582 -0.00014573 3.01491
0.305 0.015 -0.0304101 0.000973406 -0.00015056 3.10152
0.31 0.015 -0.031356 0.000987248 -0.000155464 3.18889
0.315 0.015 -0.0323127 0.000999678 -0.000160433 3.27687
0.32 0.015 -0.0332788 0.00101065 -0.00016546 3.36531
0.325 0.015 -0.0342528 0.0010201 -0.000170539 3.45406
0.33 0.015 -0.0352331 0.001028 -0.000175662 3.54298
0.335 0.015 -0.0362182 0.00103429 -0.000180819 3.6319
0.34 0.015 -0.0372065 0.00103893 -0.000186004 3.72066
0.345 0.015 -0.0381963 0.00104186 -0.000191209 3.80912
0.35 0.015 -0.0391859 0.00104306 -0.000196423 3.89711
0.355 0.015 -0.0401736 0.00104247 -0.000201639 3.98447
0.36 0.015 -0.0411577 0.00104006 -0.000206848 4.07103
0.365 0.015 -0.0421364 0.0010358 -0.00021204 4.15664
0.37 0.015 -0.0431079 0.00102965 -0.000217206 4.24112
0.375 0.015 -0.0440704 0.00102158 -0.000222336 4.32432
0.38 0.015 -0.045022 0.00101157 -0.000227422 4.40607
0.385 0.015 -0.0459609 0.000999604 -0.000232452 4.48621
0.39 0.015 -0.0468853 0.000985657 -0.000237418 4.56458
0.395 0.015 -0.0477932 0.000969719 -0.000242309 4.64101
0.4 0.015 -0.0486829 0.00095178 -0.000247115 4.71536
0.405 0.015 -0.0495524 0.000931837 -0.000251827 4.78745
0.41 0.015 -0.0503999 0.00090989 -0.000256434 4.85715
0.415 0.015 -0.0512236 0.000885944 -0.000260926 4.92429
0.42 0.015 -0.0520216 0.000860009 -0.000265293 4.98874
0.425 0.015 -0.0527922 0.0008321 -0.000269526 5.05034
0.43 0.015 -0.0535335 0.000802237 -0.000273614 5.10896
0.435 0.015 -0.0542439 0.000770444 -0.000277548 5.16445
0.44 0.015 -0.0549215 0.000736751 -0.000281319 5.2167
0.445 0.015 -0.0555647 0.000701193 -0.000284916 5.26557
0.45 0.015 -0.0561719 0.00066381 -0.000288331 5.31093
0.455 0.015 -0.0567414 0.000624648 -0.000291554 5.35268
0.46 0.015 -0.0572718 0.000583757 -0.000294578 5.39071
0.465 0.015 -0.0577615 0.000541193 -0.000297392 5.42491
0.47 0.015 -0.0582092 0.000497018 -0.00029999 5.45518
0.475 0.015 -0.0586135 0.000451298 -0.000302362 5.48144
0.48 0.015 -0.058973 0.000404104 -0.000304503 5.50359
0.485 0.015 -0.0592866 0.000355513 -0.000306404 5.52157
0.49 0.015 -0.0595531 0.000305608 -0.000308058 5.5353
0.495 0.015 -0.0597716 0.000254475 -0.00030946 5.54472
0.5 0.015 -0.0599409 0.000202208 -0.000310603 5.54978
0.505 0.015 -0.0600603 0.000148902 -0.000311482 5.55043
0.51 0.015 -0.0601289 9.46614e-05 -0.000312092 5.54664
0.515 0.015 -0.0601461 3.95916e-05 -0.000312429 5.53838
0.52 0.015 -0.0601113 -1.61954e-05 -0.000312488 5.52563
0.525 0.015 -0.060024 -7.25838e-05 -0.000312267 5.50837
0.53 0.015 -0.0598839 -0.000129453 -0.000311763 5.48661
0.535 0.015 -0.0596906 -0.00018668 -0.000310973 5.46035
0.54 0.015 -0.0594441 -0.000244136 -0.000309896 5.4296
0.545 0.015 -0.0591443 -0.000301689 -0.000308532 5.3944
0.55 0.015 -0.0587913 -0.000359205 -0.000306879 5.35477
0.555 0.015 -0.0583854 -0.000416547 -0.00030494 5.31077
0.56 0.015 -0.0579268 -0.000473573 -0.000302714 5.26243
0.565 0.015 -0.0574161 -0.000530142 -0.000300204 5.20983
0.57 0.015 -0.0568538 -0.00058611 -0.000297413 5.15304
0.575 0.015 -0.0562406 -0.000641331 -0.000294343 5.09213
0.58 0.015 -0.0555775 -0.00069566 -0.000291 5.0272
0.585 0.015 -0.0548653 -0.000748949 -0.000287387 4.95835
0.59 0.015 -0.0541052 -0.000801053 -0.00028351 4.88568
0.595 0.015 -0.0532984 -0.000851826 -0.000279377 4.80931
0.6 0.015 -0.0524463 -0.000901125 -0.000274992 4.72937
0.605 0.015 -0.0515503 -0.000948807 -0.000270366 4.64598
0.61 0.015 -0.050612 -0.000994734 -0.000265505 4.5593
0.615 0.015 -0.0496333 -0.00103877 -0.000260418 4.46947
0.62 0.015 -0.0486158 -0.00108078 -0.000255117 4.37664
0.625 0.015 -0.0475615 -0.00112064 -0.000249611 4.28098
0.63 0.015 -0.0464725 -0.00115823 -0.000243911 4.18267
0.635 0.015 -0.045351 -0.00119343 -0.000238029 4.08188
0.64 0.015 -0.0441991 -0.00122614 -0.000231977 3.97879
0.645 0.015 -0.0430193 -0.00125624 -0.000225768 3.87359
0.65 0.015 -0.0418139 -0.00128365 -0.000219415 3.76649
0.655 0.015 -0.0405854 -0.00130829 -0.000212931 3.65767
0.66 0.015 -0.0393364 -0.00133007 -0.000206332 3.54734
0.665 0.015 -0.0380695 -0.00134894 -0.000199631 3.43571
0.67 0.015 -0.0367873 -0.00136483 -0.000192843 3.32298
0.675 0.015 -0.0354926 -0.0013777 -0.000185982 3.20938
0.68 0.015 -0.0341882 -0.00138753 -0.000179066 3.09511
0.685 0.015 -0.0328767 -0.00139428 -0.000172107 2.98039
0.69 0.015 -0.031561 -0.00139794 -0.000165123 2.86544
0.695 0.015 -0.0302439 -0.00139853 -0.000158128 2.75046
0.7 0.015 -0.0289281 -0.00139605 -0.000151138 2.63569
0.705 0.015 -0.0276163 -0.00139054 -0.000144168 2.52132
0.71 0.015 -0.0263113 -0.00138203 -0.000137233 2.40757
0.715 0.015 -0.0250158 -0.00137058 -0.000130347 2.29466
0.72 0.015 -0.0237323 -0.00135624 -0.000123527 2.18277
0.725 0.015 -0.0224635 -0.00133911 -0.000116785 2.07212
0.73 0.015 -0.0212119 -0.00131926 -0.000110136 1.9629
0.735 0.015 -0.0199799 -0.0012968 -0.000103593 1.8553
0.74 0.015 -0.0187697 -0.00127183 -9.7168e-05 1.7495
0.745 0.015 -0.0175836 -0.00124448 -9.08743e-05 1.64568
0.75 0.015 -0.0164238 -0.00121487 -8.47233e-05 1.54401
0.755 0.015 -0.0152922 -0.00118315 -7.87257e-05 1.44464
0.76 0.015 -0.0141907 -0.00114947 -7.28918e-05 1.34774
0.765 0.015 -0.013121 -0.00111397 -6.7231e-05 1.25343
0.77 0.015 -0.0120847 -0.00107681 -6.17521e-05 1.16187
0.775 0.015 -0.0110834 -0.00103816 -5.6463e-05 1.07316
0.78 0.015 -0.0101182 -0.00099819 -5.13706e-05 0.98742
0.785 0.015 -0.00919044 -0.00095707 -4.64811e-05 0.904754
0.79 0.015 -0.00830104 -0.000914972 -4.17999e-05 0.825251
0.795 0.015 -0.00745087 -0.000872072 -3.73314e-05 0.748989
0.8 0.015 -0.00664064 -0.000828542 -3.30792e-05 0.676036
0.805 0.015 -0.0058709 -0.000784556 -2.9046e-05 0.606448
0.81 0.015 -0.00514204 -0.000740282 -2.52336e-05 0.540268
0.815 0.015 -0.0044543 -0.000695889 -2.16431e-05 0.477529
0.82 0.015 -0.00380777 -0.000651536 -1.82747e-05 0.418252
0.825 0.015 -0.0032024 -0.000607381 -1.51278e-05 0.362445
0.83 0.015 -0.002638 -0.000563574 -1.22009e-05 0.310107
0.835 0.015 -0.00211425 -0.000520258 -9.492e-06 0.261226
0.84 0.015 -0.00163068 -0.000477569 -6.99828e-06 0.215776