Title=" Lid Driven Flow"
VARIABLES="X","Y","U","V","psi","xi"
ZONE T= "BOX", I= 201, J=201, F=POINT
0 0 0 0 0.00280582 0
0.005 0 0 0 0 0
0.01 0 0 0 0 0
0.015 0 0 0 0 161.891
0.02 0 0 0 0 176.124
0.025 0 0 0 0 155.606
0.03 0 0 0 0 133.218
0.035 0 0 0 0 115.701
0.04 0 0 0 0 102.849
0.045 0 0 0 0 93.3183
0.05 0 0 0 0 85.997
0.055 0 0 0 0 80.1526
0.06 0 0 0 0 75.3263
0.065 0 0 0 0 71.2294
0.07 0 0 0 0 67.6744
0.075 0 0 0 0 64.535
0.08 0 0 0 0 61.7229
0.085 0 0 0 0 59.175
0.09 0 0 0 0 56.8447
0.095 0 0 0 0 54.697
0.1 0 0 0 0 52.705
0.105 0 0 0 0 50.8481
0.11 0 0 0 0 49.1096
0.115 0 0 0 0 47.4763
0.12 0 0 0 0 45.9373
0.125 0 0 0 0 44.4838
0.13 0 0 0 0 43.1082
0.135 0 0 0 0 41.8041
0.14 0 0 0 0 40.5658
0.145 0 0 0 0 39.3885
0.15 0 0 0 0 38.2678
0.155 0 0 0 0 37.2
0.16 0 0 0 0 36.1814
0.165 0 0 0 0 35.2088
0.17 0 0 0 0 34.2793
0.175 0 0 0 0 33.3901
0.18 0 0 0 0 32.5387
0.185 0 0 0 0 31.7227
0.19 0 0 0 0 30.9399
0.195 0 0 0 0 30.188
0.2 0 0 0 0 29.4652
0.205 0 0 0 0 28.7697
0.21 0 0 0 0 28.0995
0.215 0 0 0 0 27.453
0.22 0 0 0 0 26.8288
0.225 0 0 0 0 26.2251
0.23 0 0 0 0 25.6408
0.235 0 0 0 0 25.0744
0.24 0 0 0 0 24.5246
0.245 0 0 0 0 23.9903
0.25 0 0 0 0 23.4703
0.255 0 0 0 0 22.9636
0.26 0 0 0 0 22.4692
0.265 0 0 0 0 21.9862
0.27 0 0 0 0 21.5137
0.275 0 0 0 0 21.0508
0.28 0 0 0 0 20.5968
0.285 0 0 0 0 20.1511
0.29 0 0 0 0 19.7128
0.295 0 0 0 0 19.2814
0.3 0 0 0 0 18.8564
0.305 0 0 0 0 18.4371
0.31 0 0 0 0 18.0232
0.315 0 0 0 0 17.6142
0.32 0 0 0 0 17.2096
0.325 0 0 0 0 16.8092
0.33 0 0 0 0 16.4126
0.335 0 0 0 0 16.0195
0.34 0 0 0 0 15.6296
0.345 0 0 0 0 15.2428
0.35 0 0 0 0 14.8589
0.355 0 0 0 0 14.4777
0.36 0 0 0 0 14.099
0.365 0 0 0 0 13.7229
0.37 0 0 0 0 13.3492
0.375 0 0 0 0 12.9779
0.38 0 0 0 0 12.609
0.385 0 0 0 0 12.2425
0.39 0 0 0 0 11.8784
0.395 0 0 0 0 11.5169
0.4 0 0 0 0 11.1579
0.405 0 0 0 0 10.8016
0.41 0 0 0 0 10.4481
0.415 0 0 0 0 10.0975
0.42 0 0 0 0 9.75001
0.425 0 0 0 0 9.40578
0.43 0 0 0 0 9.06499
0.435 0 0 0 0 8.72782
0.44 0 0 0 0 8.39446
0.445 0 0 0 0 8.06513
0.45 0 0 0 0 7.74004
0.455 0 0 0 0 7.4194
0.46 0 0 0 0 7.10344
0.465 0 0 0 0 6.79237
0.47 0 0 0 0 6.48641
0.475 0 0 0 0 6.18579
0.48 0 0 0 0 5.89072
0.485 0 0 0 0 5.60141
0.49 0 0 0 0 5.31805
0.495 0 0 0 0 5.04085
0.5 0 0 0 0 4.76999
0.505 0 0 0 0 4.50563
0.51 0 0 0 0 4.24796
0.515 0 0 0 0 3.9971
0.52 0 0 0 0 3.7532
0.525 0 0 0 0 3.51637
0.53 0 0 0 0 3.28672
0.535 0 0 0 0 3.06433
0.54 0 0 0 0 2.84927
0.545 0 0 0 0 2.64159
0.55 0 0 0 0 2.44133
0.555 0 0 0 0 2.2485
0.56 0 0 0 0 2.0631
0.565 0 0 0 0 1.88511
0.57 0 0 0 0 1.7145
0.575 0 0 0 0 1.55122
0.58 0 0 0 0 1.39518
0.585 0 0 0 0 1.24632
0.59 0 0 0 0 1.10453
0.595 0 0 0 0 0.969705
0.6 0 0 0 0 0.841708
0.605 0 0 0 0 0.720407
0.61 0 0 0 0 0.605653
0.615 0 0 0 0 0.497288
0.62 0 0 0 0 0.395143
0.625 0 0 0 0 0.299043
0.63 0 0 0 0 0.208808
0.635 0 0 0 0 0.124248
0.64 0 0 0 0 0.0451717
0.645 0 0 0 0 -0.0286171
0.65 0 0 0 0 -0.0973173
0.655 0 0 0 0 -0.16113
0.66 0 0 0 0 -0.220257
0.665 0 0 0 0 -0.2749
0.67 0 0 0 0 -0.325264
0.675 0 0 0 0 -0.371549
0.68 0 0 0 0 -0.413956
0.685 0 0 0 0 -0.452685
0.69 0 0 0 0 -0.487934
0.695 0 0 0 0 -0.519897
0.7 0 0 0 0 -0.548768
0.705 0 0 0 0 -0.574737
0.71 0 0 0 0 -0.597991
0.715 0 0 0 0 -0.618712
0.72 0 0 0 0 -0.63708
0.725 0 0 0 0 -0.653268
0.73 0 0 0 0 -0.667444
0.735 0 0 0 0 -0.679771
0.74 0 0 0 0 -0.690403
0.745 0 0 0 0 -0.699486
0.75 0 0 0 0 -0.707157
0.755 0 0 0 0 -0.713544
0.76 0 0 0 0 -0.718762
0.765 0 0 0 0 -0.722916
0.77 0 0 0 0 -0.726096
0.775 0 0 0 0 -0.72838
0.78 0 0 0 0 -0.729831
0.785 0 0 0 0 -0.730498
0.79 0 0 0 0 -0.730415
0.795 0 0 0 0 -0.729602
0.8 0 0 0 0 -0.728064
0.805 0 0 0 0 -0.725792
0.81 0 0 0 0 -0.722766
0.815 0 0 0 0 -0.718952
0.82 0 0 0 0 -0.714305
0.825 0 0 0 0 -0.708773
0.83 0 0 0 0 -0.702294
0.835 0 0 0 0 -0.694802
0.84 0 0 0 0 -0.686227
0.845 0 0 0 0 -0.676496
0.85 0 0 0 0 -0.665538
0.855 0 0 0 0 -0.653286
0.86 0 0 0 0 -0.639675
0.865 0 0 0 0 -0.624649
0.87 0 0 0 0 -0.608164
0.875 0 0 0 0 -0.590184
0.88 0 0 0 0 -0.570691
0.885 0 0 0 0 -0.549682
0.89 0 0 0 0 -0.527171
0.895 0 0 0 0 -0.503195
0.9 0 0 0 0 -0.47781
0.905 0 0 0 0 -0.451098
0.91 0 0 0 0 -0.423164
0.915 0 0 0 0 -0.39414
0.92 0 0 0 0 -0.364182
0.925 0 0 0 0 -0.333477
0.93 0 0 0 0 -0.302237
0.935 0 0 0 0 -0.270705
0.94 0 0 0 0 -0.239151
0.945 0 0 0 0 -0.207876
0.95 0 0 0 0 -0.177208
0.955 0 0 0 0 -0.147508
0.96 0 0 0 0 -0.119163
0.965 0 0 0 0 -0.0925949
0.97 0 0 0 0 -0.0682517
0.975 0 0 0 0 -0.0466105
0.98 0 0 0 0 -0.0281688
0.985 0 0 0 0 -0.0134282
0.99 0 0 0 0 -0.0028542
0.995 0 0 0 0 0.00321918
1 0 0 0 0 0.0048123
0 0.005 0 0 0 0
0.005 0.005 0 0 0 0
0.01 0.005 0 0 0 73.7278
0.015 0.005 0 0 0 62.0576
0.02 0.005 0 0 0 45.6952
0.025 0.005 0 0 0 33.9201
0.03 0.005 0 0 0 26.0242
0.035 0.005 0 0 0 20.6063
0.04 0.005 0 0 0 16.7224
0.045 0.005 0 0 0 13.8184
0.05 0.005 0 0 0 11.5721
0.055 0.005 0 0 0 9.79007
0.06 0.005 0 0 0 8.35048
0.065 0.005 0 0 0 7.17244
0.07 0.005 0 0 0 6.19962
0.075 0.005 0 0 0 5.39111
0.08 0.005 0 0 0 4.71616
0.085 0.005 0 0 0 4.15099
0.09 0.005 0 0 0 3.67682
0.095 0.005 0 0 0 3.27859
0.1 0.005 0 0 0 2.94406
0.105 0.005 0 0 0 2.6632
0.11 0.005 0 0 0 2.42773
0.115 0.005 0 0 0 2.23078
0.12 0.005 0 0 0 2.06662
0.125 0.005 0 0 0 1.9305
0.13 0.005 0 0 0 1.8184
0.135 0.005 0 0 0 1.72697
0.14 0.005 0 0 0 1.6534
0.145 0.005 0 0 0 1.59533
0.15 0.005 0 0 0 1.55075
0.155 0.005 0 0 0 1.51799
0.16 0.005 0 0 0 1.49563
0.165 0.005 0 0 0 1.48248
0.17 0.005 0 0 0 1.47751
0.175 0.005 0 0 0 1.47988
0.18 0.005 0 0 0 1.48887
0.185 0.005 0 0 0 1.50384
0.19 0.005 0 0 0 1.52428
0.195 0.005 0 0 0 1.54975
0.2 0.005 0 0 0 1.57984
0.205 0.005 0 0 0 1.61425
0.21 0.005 0 0 0 1.65266
0.215 0.005 0 0 0 1.69485
0.22 0.005 0 0 0 1.74058
0.225 0.005 0 0 0 1.78967
0.23 0.005 0 0 0 1.84193
0.235 0.005 0 0 0 1.8972
0.24 0.005 0 0 0 1.95535
0.245 0.005 0 0 0 2.01623
0.25 0.005 0 0 0 2.0797
0.255 0.005 0 0 0 2.14566
0.26 0.005 0 0 0 2.21398
0.265 0.005 0 0 0 2.28453
0.27 0.005 0 0 0 2.35721
0.275 0.005 0 0 0 2.4319
0.28 0.005 0 0 0 2.50847
0.285 0.005 0 0 0 2.58681
0.29 0.005 0 0 0 2.6668
0.295 0.005 0 0 0 2.74831
0.3 0.005 0 0 0 2.83121
0.305 0.005 0 0 0 2.91538
0.31 0.005 0 0 0 3.00068
0.315 0.005 0 0 0 3.08698
0.32 0.005 0 0 0 3.17412
0.325 0.005 0 0 0 3.26197
0.33 0.005 0 0 0 3.35038
0.335 0.005 0 0 0 3.43919
0.34 0.005 0 0 0 3.52824
0.345 0.005 0 0 0 3.61739
0.35 0.005 0 0 0 3.70645
0.355 0.005 0 0 0 3.79527
0.36 0.005 0 0 0 3.88367
0.365 0.005 0 0 0 3.97148
0.37 0.005 0 0 0 4.05853
0.375 0.005 0 0 0 4.14465
0.38 0.005 0 0 0 4.22964
0.385 0.005 0 0 0 4.31333
0.39 0.005 0 0 0 4.39555
0.395 0.005 0 0 0 4.4761
0.4 0.005 0 0 0 4.55481
0.405 0.005 0 0 0 4.6315
0.41 0.005 0 0 0 4.70598
0.415 0.005 0 0 0 4.77809
0.42 0.005 0 0 0 4.84763
0.425 0.005 0 0 0 4.91445
0.43 0.005 0 0 0 4.97836
0.435 0.005 0 0 0 5.0392
0.44 0.005 0 0 0 5.09681
0.445 0.005 0 0 0 5.15102
0.45 0.005 0 0 0 5.20169
0.455 0.005 0 0 0 5.24866
0.46 0.005 0 0 0 5.2918
0.465 0.005 0 0 0 5.33095
0.47 0.005 0 0 0 5.36601
0.475 0.005 0 0 0 5.39684
0.48 0.005 0 0 0 5.42334
0.485 0.005 0 0 0 5.44539
0.49 0.005 0 0 0 5.46291
0.495 0.005 0 0 0 5.47581
0.5 0.005 0 0 0 5.48401
0.505 0.005 0 0 0 5.48744
0.51 0.005 0 0 0 5.48606
0.515 0.005 0 0 0 5.47981
0.52 0.005 0 0 0 5.46867
0.525 0.005 0 0 0 5.45261
0.53 0.005 0 0 0 5.43163
0.535 0.005 0 0 0 5.40573
0.54 0.005 0 0 0 5.37492
0.545 0.005 0 0 0 5.33923
0.55 0.005 0 0 0 5.2987
0.555 0.005 0 0 0 5.25339
0.56 0.005 0 0 0 5.20336
0.565 0.005 0 0 0 5.14869
0.57 0.005 0 0 0 5.08947
0.575 0.005 0 0 0 5.0258
0.58 0.005 0 0 0 4.9578
0.585 0.005 0 0 0 4.88559
0.59 0.005 0 0 0 4.80932
0.595 0.005 0 0 0 4.72913
0.6 0.005 0 0 0 4.64517
0.605 0.005 0 0 0 4.55764
0.61 0.005 0 0 0 4.46669
0.615 0.005 0 0 0 4.37253
0.62 0.005 0 0 0 4.27535
0.625 0.005 0 0 0 4.17535
0.63 0.005 0 0 0 4.07276
0.635 0.005 0 0 0 3.96778
0.64 0.005 0 0 0 3.86065
0.645 0.005 0 0 0 3.75159
0.65 0.005 0 0 0 3.64085
0.655 0.005 0 0 0 3.52865
0.66 0.005 0 0 0 3.41524
0.665 0.005 0 0 0 3.30086
0.67 0.005 0 0 0 3.18575
0.675 0.005 0 0 0 3.07014
0.68 0.005 0 0 0 2.95429
0.685 0.005 0 0 0 2.83843
0.69 0.005 0 0 0 2.7228
0.695 0.005 0 0 0 2.60762
0.7 0.005 0 0 0 2.49311
0.705 0.005 0 0 0 2.37951
0.71 0.005 0 0 0 2.26702
0.715 0.005 0 0 0 2.15585
0.72 0.005 0 0 0 2.0462
0.725 0.005 0 0 0 1.93826
0.73 0.005 0 0 0 1.83221
0.735 0.005 0 0 0 1.72822
0.74 0.005 0 0 0 1.62645
0.745 0.005 0 0 0 1.52705
0.75 0.005 0 0 0 1.43016
0.755 0.005 0 0 0 1.33591
0.76 0.005 0 0 0 1.24441
0.765 0.005 0 0 0 1.15578
0.77 0.005 0 0 0 1.0701
0.775 0.005 0 0 0 0.987456
0.78 0.005 0 0 0 0.907916
0.785 0.005 0 0 0 0.831539
0.79 0.005 0 0 0 0.758371
0.795 0.005 0 0 0 0.688448
0.8 0.005 0 0 0 0.621793
0.805 0.005 0 0 0 0.558421
0.81 0.005 0 0 0 0.498334
0.815 0.005 0 0 0 0.441525
0.82 0.005 0 0 0 0.387979
0.825 0.005 0 0 0 0.33767
0.83 0.005 0 0 0 0.290564
0.835 0.005 0 0 0 0.246619
0.84 0.005 0 0 0 0.205787
0.845 0.005 0 0 0 0.168011
0.85 0.005 0 0 0 0.133229
0.855 0.005 0 0 0 0.101373
0.86 0.005 0 0 0 0.0723701
0.865 0.005 0 0 0 0.0461419
0.87 0.005 0 0 0 0.0226069
0.875 0.005 0 0 0 0.0016795
0.88 0.005 0 0 0 -0.0167287
0.885 0.005 0 0 0 -0.032709
0.89 0.005 0 0 0 -0.0463549
0.895 0.005 0 0 0 -0.0577622
0.9 0.005 0 0 0 -0.0670282
0.905 0.005 0 0 0 -0.0742524
0.91 0.005 0 0 0 -0.0795358
0.915 0.005 0 0 0 -0.0829816
0.92 0.005 0 0 0 -0.0846952
0.925 0.005 0 0 0 -0.084785
0.93 0.005 0 0 0 -0.0833635
0.935 0.005 0 0 0 -0.080548
0.94 0.005 0 0 0 -0.0764625
0.945 0.005 0 0 0 -0.0712401
0.95 0.005 0 0 0 -0.0650254
0.955 0.005 0 0 0 -0.0579783
0.96 0.005 0 0 0 -0.0502793
0.965 0.005 0 0 0 -0.0421349
0.97 0.005 0 0 0 -0.0337862
0.975 0.005 0 0 0 -0.0255191
0.98 0.005 0 0 0 -0.0176762
0.985 0.005 0 0 0 -0.0106697
0.99 0.005 0 0 0 -0.00498583
0.995 0.005 0 0 0 -0.00115373
1 0.005 0 0 0 0.000414633
0 0.01 0 0 0.000414633 0
0.005 0.01 0 0 0 -326.272
0.01 0.01 -0.180031 0.0775719 -0.000921597 -44.4145
0.015 0.01 -0.184802 -0.0350406 -0.000775719 9.51709
0.02 0.01 -0.156273 -0.0351718 -0.000571191 19.1076
0.025 0.01 -0.127416 -0.0245889 -0.000424001 18.9858
0.03 0.01 -0.104028 -0.0166423 -0.000325302 16.8262
0.035 0.01 -0.0858595 -0.0116272 -0.000257579 14.5045
0.04 0.01 -0.0717054 -0.00848486 -0.00020903 12.4496
0.045 0.01 -0.0605109 -0.00643795 -0.00017273 10.7148
0.05 0.01 -0.0515098 -0.00503541 -0.000144651 9.26398
0.055 0.01 -0.0441685 -0.004027 -0.000122376 8.04853
0.06 0.01 -0.0381134 -0.00327204 -0.000104381 7.02566
0.065 0.01 -0.0330771 -0.00268857 -8.96554e-05 6.16101
0.07 0.01 -0.0288624 -0.00222665 -7.74951e-05 5.4275
0.075 0.01 -0.0253199 -0.00185431 -6.73888e-05 4.80365
0.08 0.01 -0.0223337 -0.00155015 -5.89519e-05 4.27223
0.085 0.01 -0.0198117 -0.00129917 -5.18873e-05 3.81918
0.09 0.01 -0.0176794 -0.00109049 -4.59602e-05 3.43292
0.095 0.01 -0.0158763 -0.000915937 -4.09823e-05 3.1038
0.1 0.01 -0.0143523 -0.000769228 -3.68007e-05 2.82369
0.105 0.01 -0.0130657 -0.000645409 -3.329e-05 2.58576
0.11 0.01 -0.0119816 -0.000540525 -3.03465e-05 2.38419
0.115 0.01 -0.0110711 -0.000451375 -2.78846e-05 2.21405
0.12 0.01 -0.0103093 -0.000375343 -2.58327e-05 2.07112
0.125 0.01 -0.00967571 -0.000310278 -2.41311e-05 1.95181
0.13 0.01 -0.00915276 -0.0002544 -2.27299e-05 1.85305
0.135 0.01 -0.00872566 -0.000206233 -2.1587e-05 1.77223
0.14 0.01 -0.00838187 -0.000164545 -2.06675e-05 1.7071
0.145 0.01 -0.00811077 -0.000128309 -1.99415e-05 1.65574
0.15 0.01 -0.00790336 -9.66644e-05 -1.93843e-05 1.61651
0.155 0.01 -0.00775199 -6.88916e-05 -1.89748e-05 1.58801
0.16 0.01 -0.00765015 -4.43864e-05 -1.86953e-05 1.56903
0.165 0.01 -0.00759232 -2.26419e-05 -1.85309e-05 1.55855
0.17 0.01 -0.00757381 -3.23258e-06 -1.84688e-05 1.55568
0.175 0.01 -0.0075906 1.41988e-05 -1.84985e-05 1.55967
0.18 0.01 -0.00763928 2.99518e-05 -1.86108e-05 1.56985
0.185 0.01 -0.00771691 4.42777e-05 -1.8798e-05 1.58566
0.19 0.01 -0.00782099 5.73869e-05 -1.90535e-05 1.60663
0.195 0.01 -0.00794937 6.94551e-05 -1.93718e-05 1.63232
0.2 0.01 -0.00810017 8.0629e-05 -1.9748e-05 1.66238
0.205 0.01 -0.00827178 9.10304e-05 -2.0178e-05 1.69648
0.21 0.01 -0.0084628 0.000100761 -2.06583e-05 1.73434
0.215 0.01 -0.00867197 0.000109903 -2.11856e-05 1.77571
0.22 0.01 -0.0088982 0.000118525 -2.17572e-05 1.82038
0.225 0.01 -0.00914052 0.000126684 -2.23708e-05 1.86813
0.23 0.01 -0.00939802 0.000134423 -2.30241e-05 1.91879
0.235 0.01 -0.00966989 0.00014178 -2.3715e-05 1.97219
0.24 0.01 -0.00995539 0.000148781 -2.44418e-05 2.02817
0.245 0.01 -0.0102538 0.000155449 -2.52028e-05 2.0866
0.25 0.01 -0.0105645 0.0001618 -2.59963e-05 2.14732
0.255 0.01 -0.0108867 0.000167845 -2.68208e-05 2.21021
0.26 0.01 -0.01122 0.000173592 -2.76747e-05 2.27514
0.265 0.01 -0.0115636 0.000179045 -2.85567e-05 2.34198
0.27 0.01 -0.011917 0.000184205 -2.94652e-05 2.4106
0.275 0.01 -0.0122796 0.000189071 -3.03987e-05 2.48089
0.28 0.01 -0.0126507 0.000193641 -3.13559e-05 2.55271
0.285 0.01 -0.0130298 0.00019791 -3.23351e-05 2.62594
0.29 0.01 -0.0134162 0.000201871 -3.3335e-05 2.70046
0.295 0.01 -0.0138093 0.000205518 -3.43539e-05 2.77613
0.3 0.01 -0.0142085 0.000208843 -3.53902e-05 2.85283
0.305 0.01 -0.0146131 0.000211837 -3.64423e-05 2.93042
0.31 0.01 -0.0150224 0.000214491 -3.75086e-05 3.00877
0.315 0.01 -0.0154357 0.000216795 -3.85872e-05 3.08774
0.32 0.01 -0.0158524 0.000218741 -3.96766e-05 3.16719
0.325 0.01 -0.0162717 0.000220318 -4.07747e-05 3.24698
0.33 0.01 -0.0166929 0.000221516 -4.18798e-05 3.32696
0.335 0.01 -0.0171152 0.000222327 -4.29899e-05 3.407
0.34 0.01 -0.0175378 0.000222741 -4.41031e-05 3.48693
0.345 0.01 -0.0179601 0.00022275 -4.52174e-05 3.56661
0.35 0.01 -0.0183811 0.000222345 -4.63307e-05 3.64588
0.355 0.01 -0.0188002 0.000221518 -4.74409e-05 3.7246
0.36 0.01 -0.0192164 0.000220263 -4.85459e-05 3.8026
0.365 0.01 -0.019629 0.000218574 -4.96436e-05 3.87972
0.37 0.01 -0.0200371 0.000216444 -5.07318e-05 3.95582
0.375 0.01 -0.0204398 0.000213869 -5.18082e-05 4.03072
0.38 0.01 -0.0208364 0.000210847 -5.28706e-05 4.10428
0.385 0.01 -0.021226 0.000207373 -5.39168e-05 4.17633
0.39 0.01 -0.0216078 0.000203447 -5.49444e-05 4.24672
0.395 0.01 -0.0219808 0.000199068 -5.59514e-05 4.31529
0.4 0.01 -0.0223443 0.000194236 -5.69352e-05 4.38189
0.405 0.01 -0.0226974 0.000188953 -5.78939e-05 4.44636
0.41 0.01 -0.0230393 0.000183222 -5.88249e-05 4.50856
0.415 0.01 -0.0233692 0.000177048 -5.97262e-05 4.56832
0.42 0.01 -0.0236863 0.000170436 -6.05956e-05 4.62552
0.425 0.01 -0.0239898 0.000163392 -6.14308e-05 4.68
0.43 0.01 -0.0242788 0.000155925 -6.22297e-05 4.73163
0.435 0.01 -0.0245528 0.000148044 -6.29902e-05 4.78028
0.44 0.01 -0.0248108 0.000139759 -6.37103e-05 4.82581
0.445 0.01 -0.0250523 0.000131083 -6.4388e-05 4.8681
0.45 0.01 -0.0252764 0.000122028 -6.50213e-05 4.90703
0.455 0.01 -0.0254827 0.00011261 -6.56085e-05 4.94249
0.46 0.01 -0.0256704 0.000102844 -6.61477e-05 4.97438
0.465 0.01 -0.025839 9.27476e-05 -6.66372e-05 5.00258
0.47 0.01 -0.0259879 8.23389e-05 -6.70754e-05 5.02701
0.475 0.01 -0.0261165 7.16376e-05 -6.74608e-05 5.04759
0.48 0.01 -0.0262245 6.06647e-05 -6.7792e-05 5.06423
0.485 0.01 -0.0263113 4.94423e-05 -6.80677e-05 5.07686
0.49 0.01 -0.0263766 3.79934e-05 -6.82867e-05 5.08542
0.495 0.01 -0.0264201 2.63423e-05 -6.84479e-05 5.08985
0.5 0.01 -0.0264413 1.45145e-05 -6.85504e-05 5.09012
0.505 0.01 -0.0264401 2.53601e-06 -6.85933e-05 5.08618
0.51 0.01 -0.0264163 -9.56587e-06 -6.8576e-05 5.078
0.515 0.01 -0.0263696 -2.17632e-05 -6.84979e-05 5.06557
0.52 0.01 -0.0263001 -3.40271e-05 -6.83587e-05 5.04888
0.525 0.01 -0.0262076 -4.63283e-05 -6.8158e-05 5.02794
0.53 0.01 -0.0260921 -5.86366e-05 -6.78957e-05 5.00274
0.535 0.01 -0.0259538 -7.09216e-05 -6.75719e-05 4.97332
0.54 0.01 -0.0257927 -8.31523e-05 -6.71868e-05 4.93969
0.545 0.01 -0.0256089 -9.52975e-05 -6.67407e-05 4.90192
0.55 0.01 -0.0254029 -0.000107326 -6.62341e-05 4.86003
0.555 0.01 -0.0251747 -0.000119206 -6.56677e-05 4.8141
0.56 0.01 -0.0249247 -0.000130906 -6.50423e-05 4.7642
0.565 0.01 -0.0246535 -0.000142396 -6.4359e-05 4.7104
0.57 0.01 -0.0243613 -0.000153644 -6.36187e-05 4.6528
0.575 0.01 -0.0240487 -0.000164619 -6.28228e-05 4.59149
0.58 0.01 -0.0237162 -0.000175292 -6.19728e-05 4.52658
0.585 0.01 -0.0233646 -0.000185634 -6.10702e-05 4.45819
0.59 0.01 -0.0229943 -0.000195616 -6.01168e-05 4.38644
0.595 0.01 -0.0226062 -0.00020521 -5.91144e-05 4.31148
0.6 0.01 -0.022201 -0.000214392 -5.8065e-05 4.23343
0.605 0.01 -0.0217795 -0.000223134 -5.69708e-05 4.15245
0.61 0.01 -0.0213425 -0.000231415 -5.58339e-05 4.0687
0.615 0.01 -0.020891 -0.00023921 -5.46569e-05 3.98235
0.62 0.01 -0.0204258 -0.000246501 -5.34421e-05 3.89355
0.625 0.01 -0.0199479 -0.000253267 -5.21922e-05 3.80248
0.63 0.01 -0.0194582 -0.000259493 -5.09097e-05 3.70933
0.635 0.01 -0.0189579 -0.000265161 -4.95975e-05 3.61428
0.64 0.01 -0.0184479 -0.00027026 -4.82584e-05 3.51752
0.645 0.01 -0.0179292 -0.000274778 -4.68952e-05 3.41924
0.65 0.01 -0.0174031 -0.000278706 -4.55109e-05 3.31964
0.655 0.01 -0.0168704 -0.000282037 -4.41084e-05 3.21891
0.66 0.01 -0.0163325 -0.000284767 -4.26907e-05 3.11725
0.665 0.01 -0.0157902 -0.000286893 -4.1261e-05 3.01487
0.67 0.01 -0.0152449 -0.000288415 -3.9822e-05 2.91195
0.675 0.01 -0.0146974 -0.000289336 -3.8377e-05 2.8087
0.68 0.01 -0.0141491 -0.000289659 -3.69289e-05 2.70532
0.685 0.01 -0.0136008 -0.000289392 -3.54806e-05 2.60199
0.69 0.01 -0.0130538 -0.000288544 -3.40352e-05 2.49892
0.695 0.01 -0.012509 -0.000287125 -3.25954e-05 2.3963
0.7 0.01 -0.0119674 -0.000285149 -3.11641e-05 2.2943
0.705 0.01 -0.0114302 -0.000282631 -2.97441e-05 2.19311
0.71 0.01 -0.0108982 -0.000279588 -2.83379e-05 2.09291
0.715 0.01 -0.0103724 -0.000276039 -2.69483e-05 1.99386
0.72 0.01 -0.00985372 -0.000272005 -2.55777e-05 1.89613
0.725 0.01 -0.00934301 -0.000267507 -2.42284e-05 1.79988
0.73 0.01 -0.0088411 -0.000262569 -2.29027e-05 1.70526
0.735 0.01 -0.00834878 -0.000257216 -2.16028e-05 1.6124
0.74 0.01 -0.00786678 -0.000251474 -2.03307e-05 1.52145
0.745 0.01 -0.00739581 -0.00024537 -1.90882e-05 1.43253
0.75 0.01 -0.00693649 -0.000238932 -1.78771e-05 1.34575
0.755 0.01 -0.00648943 -0.000232188 -1.66989e-05 1.26124
0.76 0.01 -0.00605517 -0.000225167 -1.55552e-05 1.17908
0.765 0.01 -0.00563419 -0.000217899 -1.44473e-05 1.09937
0.77 0.01 -0.00522694 -0.000210412 -1.33763e-05 1.02219
0.775 0.01 -0.00483379 -0.000202736 -1.23432e-05 0.947612
0.78 0.01 -0.00445508 -0.000194901 -1.1349e-05 0.875697
0.785 0.01 -0.00409109 -0.000186935 -1.03943e-05 0.8065
0.79 0.01 -0.00374203 -0.000178867 -9.47966e-06 0.740064
0.795 0.01 -0.0034081 -0.000170725 -8.60562e-06 0.676425
0.8 0.01 -0.0030894 -0.000162536 -7.77243e-06 0.615608
0.805 0.01 -0.00278602 -0.000154326 -6.98027e-06 0.557631
0.81 0.01 -0.00249799 -0.00014612 -6.22917e-06 0.502502
0.815 0.01 -0.00222529 -0.000137944 -5.51906e-06 0.450222
0.82 0.01 -0.00196786 -0.000129819 -4.84973e-06 0.400783
0.825 0.01 -0.00172559 -0.000121768 -4.22086e-06 0.35417
0.83 0.01 -0.00149836 -0.000113812 -3.63204e-06 0.31036
0.835 0.01 -0.00128597 -0.00010597 -3.08273e-06 0.269325
0.84 0.01 -0.00108821 -9.82586e-05 -2.57232e-06 0.231027
0.845 0.01 -0.000904846 -9.06955e-05 -2.10012e-06 0.195426
0.85 0.01 -0.000735593 -8.32953e-05 -1.66534e-06 0.162472
0.855 0.01 -0.000580151 -7.60717e-05 -1.26714e-06 0.132115
0.86 0.01 -0.000438191 -6.90369e-05 -9.04601e-07 0.104295
0.865 0.01 -0.000309362 -6.22016e-05 -5.76748e-07 0.0789509
0.87 0.01 -0.000193293 -5.55754e-05 -2.82558e-07 0.0560158
0.875 0.01 -8.95958e-05 -4.91667e-05 -2.09658e-08 0.03542
0.88 0.01 2.13561e-06 -4.29828e-05 2.09137e-07 0.01709
0.885 0.01 8.23208e-05 -3.703e-05 4.08891e-07 0.000949398
0.89 0.01 0.000151392 -3.13137e-05 5.79464e-07 -0.0130812
0.895 0.01 0.000209795 -2.58389e-05 7.22055e-07 -0.0250837
0.9 0.01 0.000257983 -2.06101e-05 8.3788e-07 -0.0351427
0.905 0.01 0.000296424 -1.56318e-05 9.28181e-07 -0.0433453
0.91 0.01 0.000325593 -1.09089e-05 9.94223e-07 -0.0497812
0.915 0.01 0.00034598 -6.44667e-06 1.03729e-06 -0.0545432
0.92 0.01 0.000358088 -2.25194e-06 1.05871e-06 -0.057727
0.925 0.01 0.000362435 1.66679e-06 1.05983e-06 -0.0594325
0.93 0.01 0.000359563 5.29838e-06 1.04206e-06 -0.0597637
0.935 0.01 0.000350036 8.62812e-06 1.00687e-06 -0.0588306
0.94 0.01 0.000334454 1.16366e-05 9.55797e-07 -0.0567498
0.945 0.01 0.000313459 1.4298e-05 8.90515e-07 -0.0536466
0.95 0.01 0.000287747 1.65786e-05 8.12829e-07 -0.0496568
0.955 0.01 0.000258085 1.84338e-05 7.24739e-07 -0.0449292
0.96 0.01 0.000225327 1.98053e-05 6.28499e-07 -0.0396285
0.965 0.01 0.000190439 2.06172e-05 5.26692e-07 -0.0339384
0.97 0.01 0.000154526 2.07703e-05 4.22332e-07 -0.0280649
0.975 0.01 0.000118862 2.0138e-05 3.18992e-07 -0.0222377
0.98 0.01 8.49184e-05 1.85621e-05 2.20955e-07 -0.0167094
0.985 0.01 5.4382e-05 1.58632e-05 1.33372e-07 -0.0117445
0.99 0.01 2.91188e-05 1.1895e-05 6.23231e-08 -0.00758766
0.995 0.01 1.10085e-05 6.7506e-06 1.44215e-08 -0.00438162
1 0.01 1.43864e-06 1.44215e-06 -5.18307e-09 -0.00198163
0 0.015 0 0 -0.00115091 0
0.005 0.015 0 0 0 -255.975
0.01 0.015 -0.152821 0.184802 -0.00180031 -79.2722
0.015 0.015 -0.206147 -0.0237574 -0.00184802 -16.6447
0.02 0.015 -0.204447 -0.057386 -0.00156273 2.32392
0.025 0.015 -0.184431 -0.052245 -0.00127416 7.94796
0.03 0.015 -0.160977 -0.0415563 -0.00104028 9.27996
0.035 0.015 -0.139073 -0.0323229 -0.000858595 9.1537
0.04 0.015 -0.119993 -0.0253486 -0.000717054 8.539
0.045 0.015 -0.103757 -0.0201957 -0.000605109 7.79009
0.05 0.015 -0.0900306 -0.0163424 -0.000515097 7.04045
0.055 0.015 -0.0784241 -0.0133963 -0.000441684 6.33946
0.06 0.015 -0.06859 -0.0110914 -0.000381134 5.70325
0.065 0.015 -0.0602375 -0.00925102 -0.000330771 5.13445
0.07 0.015 -0.0531291 -0.00775712 -0.000288624 4.63027
0.075 0.015 -0.0470706 -0.00652862 -0.000253199 4.18588
0.08 0.015 -0.0419024 -0.00550827 -0.000223337 3.79582
0.085 0.015 -0.0374926 -0.00465428 -0.000198116 3.45468
0.09 0.015 -0.0337309 -0.00393529 -0.000176794 3.15731
0.095 0.015 -0.0305245 -0.0033271 -0.000158763 2.89898
0.1 0.015 -0.0277954 -0.00281064 -0.000143523 2.67537
0.105 0.015 -0.0254772 -0.00237062 -0.000130656 2.4826
0.11 0.015 -0.0235135 -0.00199459 -0.000119816 2.31719
0.115 0.015 -0.0218563 -0.00167231 -0.00011071 2.17602
0.12 0.015 -0.0204647 -0.00139531 -0.000103093 2.05635
0.125 0.015 -0.0193038 -0.00115652 -9.67568e-05 1.95573
0.13 0.015 -0.0183437 -0.000950025 -9.15273e-05 1.87202
0.135 0.015 -0.0175588 -0.000770864 -8.72563e-05 1.80332
0.14 0.015 -0.0169274 -0.000614857 -8.38184e-05 1.74797
0.145 0.015 -0.0164308 -0.000478481 -8.11075e-05 1.70451
0.15 0.015 -0.0160529 -0.000358763 -7.90334e-05 1.67167
0.155 0.015 -0.0157803 -0.000253189 -7.75196e-05 1.64834
0.16 0.015 -0.015601 -0.000159637 -7.65012e-05 1.63353
0.165 0.015 -0.0155051 -7.63118e-05 -7.5923e-05 1.6264
0.17 0.015 -0.015484 -1.69692e-06 -7.57379e-05 1.6262
0.175 0.015 -0.0155303 6.54896e-05 -7.59058e-05 1.63229
0.18 0.015 -0.0156376 0.00012633 -7.63926e-05 1.64409
0.185 0.015 -0.0158005 0.000181735 -7.71689e-05 1.6611
0.19 0.015 -0.0160142 0.000232475 -7.82098e-05 1.68289
0.195 0.015 -0.0162746 0.000279194 -7.94935e-05 1.70906
0.2 0.015 -0.0165781 0.000322433 -8.10015e-05 1.73929
0.205 0.015 -0.0169217 0.000362644 -8.27177e-05 1.77326
0.21 0.015 -0.0173025 0.000400203 -8.46278e-05 1.8107
0.215 0.015 -0.0177182 0.000435423 -8.67196e-05 1.85138
0.22 0.015 -0.0181665 0.000468559 -8.89819e-05 1.89506
0.225 0.015 -0.0186455 0.000499823 -9.1405e-05 1.94156
0.23 0.015 -0.0191535 0.000529385 -9.398e-05 1.99067
0.235 0.015 -0.0196887 0.000557382 -9.66988e-05 2.04224
0.24 0.015 -0.0202497 0.000583922 -9.95538e-05 2.0961
0.245 0.015 -0.020835 0.000609088 -0.000102538 2.15209
0.25 0.015 -0.0214432 0.000632945 -0.000105645 2.21007
0.255 0.015 -0.0220731 0.000655537 -0.000108867 2.26991
0.26 0.015 -0.0227233 0.000676896 -0.0001122 2.33145
0.265 0.015 -0.0233926 0.000697039 -0.000115636 2.39458
0.27 0.015 -0.0240797 0.000715975 -0.00011917 2.45915
0.275 0.015 -0.0247835 0.000733703 -0.000122796 2.52504
0.28 0.015 -0.0255026 0.000750214 -0.000126507 2.59212
0.285 0.015 -0.0262359 0.000765493 -0.000130298 2.66025
0.29 0.015 -0.026982 0.000779522 -0.000134162 2.7293
0.295 0.015 -0.0277398 0.000792277 -0.000138094 2.79915
0.3 0.015 -0.0285078 0.000803732 -0.000142085 2.86966
0.305 0.015 -0.0292848 0.000813857 -0.000146131 2.9407
0.31 0.015 -0.0300694 0.000822623 -0.000150224 3.01214
0.315 0.015 -0.0308603 0.000829998 -0.000154357 3.08383
0.32 0.015 -0.031656 0.00083595 -0.000158524 3.15564
0.325 0.015 -0.0324552 0.000840448 -0.000162717 3.22744
0.33 0.015 -0.0332564 0.00084346 -0.000166929 3.29909
0.335 0.015 -0.0340581 0.000844955 -0.000171152 3.37044
0.34 0.015 -0.0348589 0.000844906 -0.000175379 3.44135
0.345 0.015 -0.0356572 0.000843285 -0.000179601 3.51169
0.35 0.015 -0.0364515 0.000840067 -0.000183812 3.58131
0.355 0.015 -0.0372403 0.00083523 -0.000188002 3.65007
0.36 0.015 -0.038022 0.000828752 -0.000192164 3.71784
0.365 0.015 -0.038795 0.000820618 -0.00019629 3.78446
0.37 0.015 -0.0395577 0.000810813 -0.000200371 3.84981
0.375 0.015 -0.0403086 0.000799326 -0.000204399 3.91373
0.38 0.015 -0.0410461 0.000786152 -0.000208365 3.97611
0.385 0.015 -0.0417686 0.000771286 -0.000212261 4.03679
0.39 0.015 -0.0424746 0.00075473 -0.000216078 4.09564
0.395 0.015 -0.0431623 0.000736488 -0.000219808 4.15254
0.4 0.015 -0.0438305 0.00071657 -0.000223444 4.20736
0.405 0.015 -0.0444773 0.000694989 -0.000226975 4.25996
0.41 0.015 -0.0451015 0.000671763 -0.000230394 4.31024
0.415 0.015 -0.0457014 0.000646913 -0.000233693 4.35806
0.42 0.015 -0.0462756 0.000620468 -0.000236864 4.40332
0.425 0.015 -0.0468227 0.000592458 -0.000239898 4.44591
0.43 0.015 -0.0473413 0.00056292 -0.000242789 4.48571
0.435 0.015 -0.0478301 0.000531895 -0.000245528 4.52263
0.44 0.015 -0.0482878 0.000499427 -0.000248109 4.55657
0.445 0.015 -0.048713 0.000465566 -0.000250523 4.58744
0.45 0.015 -0.0491047 0.000430368 -0.000252765 4.61516
0.455 0.015 -0.0494616 0.000393892 -0.000254828 4.63964
0.46 0.015 -0.0497827 0.0003562 -0.000256705 4.66082
0.465 0.015 -0.050067 0.000317361 -0.000258391 4.67862
0.47 0.015 -0.0503136 0.000277447 -0.00025988 4.693
0.475 0.015 -0.0505215 0.000236535 -0.000261166 4.70388
0.48 0.015 -0.0506901 0.000194704 -0.000262246 4.71123
0.485 0.015 -0.0508184 0.00015204 -0.000263114 4.71501
0.49 0.015 -0.050906 0.000108629 -0.000263767 4.71519
0.495 0.015 -0.0509523 6.45641e-05 -0.000264202 4.71173
0.5 0.015 -0.0509568 1.99394e-05 -0.000264414 4.70463
0.505 0.015 -0.0509191 -2.51473e-05 -0.000264402 4.69386
0.51 0.015 -0.050839 -7.05952e-05 -0.000264164 4.67944
0.515 0.015 -0.0507162 -0.000116301 -0.000263697 4.66136
0.52 0.015 -0.0505507 -0.000162159 -0.000263002 4.63964
0.525 0.015 -0.0503425 -0.000208062 -0.000262077 4.6143
0.53 0.015 -0.0500917 -0.000253901 -0.000260922 4.58536
0.535 0.015 -0.0497984 -0.000299564 -0.000259539 4.55287
0.54 0.015 -0.049463 -0.000344941 -0.000257928 4.51686
0.545 0.015 -0.0490859 -0.000389918 -0.000256091 4.47738
0.55 0.015 -0.0486676 -0.000434385 -0.00025403 4.43451
0.555 0.015 -0.0482086 -0.000478228 -0.000251748 4.38829
0.56 0.015 -0.0477097 -0.000521335 -0.000249249 4.3388
0.565 0.015 -0.0471717 -0.000563596 -0.000246536 4.28613
0.57 0.015 -0.0465954 -0.000604902 -0.000243614 4.23037
0.575 0.015 -0.0459819 -0.000645144 -0.000240488 4.17159
0.58 0.015 -0.0453322 -0.000684219 -0.000237164 4.10991
0.585 0.015 -0.0446476 -0.000722022 -0.000233647 4.04543
0.59 0.015 -0.0439292 -0.000758456 -0.000229945 3.97827
0.595 0.015 -0.0431784 -0.000793424 -0.000226064 3.90854
0.6 0.015 -0.0423966 -0.000826835 -0.000222011 3.83636
0.605 0.015 -0.0415853 -0.000858601 -0.000217796 3.76187
0.61 0.015 -0.0407462 -0.000888642 -0.000213427 3.68519
0.615 0.015 -0.0398807 -0.000916879 -0.000208911 3.60647
0.62 0.015 -0.0389908 -0.000943242 -0.000204259 3.52585
0.625 0.015 -0.038078 -0.000967665 -0.00019948 3.44347
0.63 0.015 -0.0371442 -0.000990091 -0.000194583 3.35949
0.635 0.015 -0.0361913 -0.00101047 -0.00018958 3.27404
0.64 0.015 -0.0352212 -0.00102875 -0.00018448 3.1873
0.645 0.015 -0.0342358 -0.0010449 -0.000179293 3.09941
0.65 0.015 -0.033237 -0.00105889 -0.000174032 3.01053
0.655 0.015 -0.0322269 -0.00107069 -0.000168705 2.92082
0.66 0.015 -0.0312074 -0.0010803 -0.000163326 2.83044
0.665 0.015 -0.0301806 -0.0010877 -0.000157903 2.73956
0.67 0.015 -0.0291484 -0.00109289 -0.00015245 2.64832
0.675 0.015 -0.0281129 -0.00109589 -0.000146975 2.55689
0.68 0.015 -0.027076 -0.00109672 -0.000141491 2.46542
0.685 0.015 -0.0260397 -0.00109539 -0.000136009 2.37408
0.69 0.015 -0.0250059 -0.00109194 -0.000130538 2.28301
0.695 0.015 -0.0239766 -0.0010864 -0.00012509 2.19236
0.7 0.015 -0.0229537 -0.00107884 -0.000119675 2.1023
0.705 0.015 -0.0219388 -0.0010693 -0.000114302 2.01295
0.71 0.015 -0.0209339 -0.00105784 -0.000108983 1.92446
0.715 0.015 -0.0199406 -0.00104454 -0.000103725 1.83696
0.72 0.015 -0.0189606 -0.00102945 -9.85377e-05 1.7506
0.725 0.015 -0.0179954 -0.00101267 -9.34306e-05 1.66549
0.73 0.015 -0.0170466 -0.000994281 -8.84115e-05 1.58176
0.735 0.015 -0.0161156 -0.000974363 -8.34882e-05 1.49952
0.74 0.015 -0.0152037 -0.000953014 -7.86682e-05 1.41889
0.745 0.015 -0.0143123 -0.00093033 -7.39584e-05 1.33997
0.75 0.015 -0.0134425 -0.00090641 -6.93653e-05 1.26285
0.755 0.015 -0.0125954 -0.000881355 -6.48946e-05 1.18763
0.76 0.015 -0.0117721 -0.000855269 -6.0552e-05 1.11439
0.765 0.015 -0.0109733 -0.000828258 -5.63422e-05 1.04321
0.77 0.015 -0.0102 -0.000800426 -5.22696e-05 0.974162
0.775 0.015 -0.00945281 -0.00077188 -4.83381e-05 0.907305
0.78 0.015 -0.00873243 -0.000742725 -4.4551e-05 0.842697
0.785 0.015 -0.00803938 -0.000713066 -4.0911e-05 0.780386
0.79 0.015 -0.00737408 -0.000683005 -3.74204e-05 0.720415
0.795 0.015 -0.00673689 -0.000652645 -3.4081e-05 0.662818
0.8 0.015 -0.00612806 -0.000622083 -3.08941e-05 0.607622
0.805 0.015 -0.00554777 -0.000591417 -2.78603e-05 0.554847
0.81 0.015 -0.00499609 -0.000560738 -2.49799e-05 0.504508
0.815 0.015 -0.00447302 -0.000530136 -2.22529e-05 0.45661
0.82 0.015 -0.00397848 -0.000499697 -1.96786e-05 0.411155
0.825 0.015 -0.00351232 -0.0004695 -1.72559e-05 0.368135
0.83 0.015 -0.00307429 -0.000439624 -1.49835e-05 0.32754
0.835 0.015 -0.00266411 -0.000410141 -1.28596e-05 0.289351