Title=" Lid Driven Flow"
VARIABLES="X","Y","U","V","psi","xi"
ZONE T= "BOX", I= 201, J=201, F=POINT
0 0 0 0 0.00274853 0
0.005 0 0 0 0 0
0.01 0 0 0 0 0
0.015 0 0 0 0 161.891
0.02 0 0 0 0 176.124
0.025 0 0 0 0 155.606
0.03 0 0 0 0 133.219
0.035 0 0 0 0 115.703
0.04 0 0 0 0 102.852
0.045 0 0 0 0 93.3213
0.05 0 0 0 0 86.0003
0.055 0 0 0 0 80.1558
0.06 0 0 0 0 75.3293
0.065 0 0 0 0 71.2319
0.07 0 0 0 0 67.6763
0.075 0 0 0 0 64.5359
0.08 0 0 0 0 61.7228
0.085 0 0 0 0 59.1738
0.09 0 0 0 0 56.8421
0.095 0 0 0 0 54.693
0.1 0 0 0 0 52.6997
0.105 0 0 0 0 50.8412
0.11 0 0 0 0 49.1012
0.115 0 0 0 0 47.4664
0.12 0 0 0 0 45.926
0.125 0 0 0 0 44.471
0.13 0 0 0 0 43.094
0.135 0 0 0 0 41.7884
0.14 0 0 0 0 40.5487
0.145 0 0 0 0 39.3701
0.15 0 0 0 0 38.2482
0.155 0 0 0 0 37.1791
0.16 0 0 0 0 36.1593
0.165 0 0 0 0 35.1856
0.17 0 0 0 0 34.255
0.175 0 0 0 0 33.3648
0.18 0 0 0 0 32.5124
0.185 0 0 0 0 31.6954
0.19 0 0 0 0 30.9116
0.195 0 0 0 0 30.1589
0.2 0 0 0 0 29.4353
0.205 0 0 0 0 28.7389
0.21 0 0 0 0 28.0679
0.215 0 0 0 0 27.4207
0.22 0 0 0 0 26.7957
0.225 0 0 0 0 26.1913
0.23 0 0 0 0 25.6063
0.235 0 0 0 0 25.0391
0.24 0 0 0 0 24.4887
0.245 0 0 0 0 23.9537
0.25 0 0 0 0 23.433
0.255 0 0 0 0 22.9257
0.26 0 0 0 0 22.4307
0.265 0 0 0 0 21.947
0.27 0 0 0 0 21.4738
0.275 0 0 0 0 21.0102
0.28 0 0 0 0 20.5556
0.285 0 0 0 0 20.1091
0.29 0 0 0 0 19.6702
0.295 0 0 0 0 19.2382
0.3 0 0 0 0 18.8125
0.305 0 0 0 0 18.3925
0.31 0 0 0 0 17.978
0.315 0 0 0 0 17.5682
0.32 0 0 0 0 17.163
0.325 0 0 0 0 16.7619
0.33 0 0 0 0 16.3646
0.335 0 0 0 0 15.9708
0.34 0 0 0 0 15.5803
0.345 0 0 0 0 15.1929
0.35 0 0 0 0 14.8083
0.355 0 0 0 0 14.4265
0.36 0 0 0 0 14.0472
0.365 0 0 0 0 13.6705
0.37 0 0 0 0 13.2962
0.375 0 0 0 0 12.9244
0.38 0 0 0 0 12.5549
0.385 0 0 0 0 12.1879
0.39 0 0 0 0 11.8234
0.395 0 0 0 0 11.4614
0.4 0 0 0 0 11.102
0.405 0 0 0 0 10.7454
0.41 0 0 0 0 10.3916
0.415 0 0 0 0 10.0407
0.42 0 0 0 0 9.69307
0.425 0 0 0 0 9.3487
0.43 0 0 0 0 9.00782
0.435 0 0 0 0 8.67062
0.44 0 0 0 0 8.3373
0.445 0 0 0 0 8.00806
0.45 0 0 0 0 7.68314
0.455 0 0 0 0 7.36273
0.46 0 0 0 0 7.04707
0.465 0 0 0 0 6.73637
0.47 0 0 0 0 6.43085
0.475 0 0 0 0 6.13074
0.48 0 0 0 0 5.83625
0.485 0 0 0 0 5.54759
0.49 0 0 0 0 5.26495
0.495 0 0 0 0 4.98854
0.5 0 0 0 0 4.71853
0.505 0 0 0 0 4.4551
0.51 0 0 0 0 4.19841
0.515 0 0 0 0 3.94859
0.52 0 0 0 0 3.70579
0.525 0 0 0 0 3.47011
0.53 0 0 0 0 3.24166
0.535 0 0 0 0 3.02052
0.54 0 0 0 0 2.80676
0.545 0 0 0 0 2.60041
0.55 0 0 0 0 2.40152
0.555 0 0 0 0 2.21008
0.56 0 0 0 0 2.02611
0.565 0 0 0 0 1.84956
0.57 0 0 0 0 1.68041
0.575 0 0 0 0 1.5186
0.58 0 0 0 0 1.36405
0.585 0 0 0 0 1.21667
0.59 0 0 0 0 1.07636
0.595 0 0 0 0 0.943003
0.6 0 0 0 0 0.816472
0.605 0 0 0 0 0.696623
0.61 0 0 0 0 0.583305
0.615 0 0 0 0 0.476354
0.62 0 0 0 0 0.3756
0.625 0 0 0 0 0.280866
0.63 0 0 0 0 0.191965
0.635 0 0 0 0 0.108709
0.64 0 0 0 0 0.0309031
0.645 0 0 0 0 -0.0416517
0.65 0 0 0 0 -0.109155
0.655 0 0 0 0 -0.171811
0.66 0 0 0 0 -0.229821
0.665 0 0 0 0 -0.283389
0.67 0 0 0 0 -0.33272
0.675 0 0 0 0 -0.378015
0.68 0 0 0 0 -0.419476
0.685 0 0 0 0 -0.457302
0.69 0 0 0 0 -0.491693
0.695 0 0 0 0 -0.522842
0.7 0 0 0 0 -0.550943
0.705 0 0 0 0 -0.576184
0.71 0 0 0 0 -0.598754
0.715 0 0 0 0 -0.618832
0.72 0 0 0 0 -0.636598
0.725 0 0 0 0 -0.652222
0.73 0 0 0 0 -0.665873
0.735 0 0 0 0 -0.67771
0.74 0 0 0 0 -0.687885
0.745 0 0 0 0 -0.696543
0.75 0 0 0 0 -0.703817
0.755 0 0 0 0 -0.709833
0.76 0 0 0 0 -0.714704
0.765 0 0 0 0 -0.718529
0.77 0 0 0 0 -0.721399
0.775 0 0 0 0 -0.723386
0.78 0 0 0 0 -0.724553
0.785 0 0 0 0 -0.724945
0.79 0 0 0 0 -0.724595
0.795 0 0 0 0 -0.72352
0.8 0 0 0 0 -0.721725
0.805 0 0 0 0 -0.7192
0.81 0 0 0 0 -0.715923
0.815 0 0 0 0 -0.711861
0.82 0 0 0 0 -0.706971
0.825 0 0 0 0 -0.701201
0.83 0 0 0 0 -0.694492
0.835 0 0 0 0 -0.686779
0.84 0 0 0 0 -0.677995
0.845 0 0 0 0 -0.668071
0.85 0 0 0 0 -0.65694
0.855 0 0 0 0 -0.644536
0.86 0 0 0 0 -0.6308
0.865 0 0 0 0 -0.615681
0.87 0 0 0 0 -0.599136
0.875 0 0 0 0 -0.581136
0.88 0 0 0 0 -0.561664
0.885 0 0 0 0 -0.540721
0.89 0 0 0 0 -0.518324
0.895 0 0 0 0 -0.494511
0.9 0 0 0 0 -0.46934
0.905 0 0 0 0 -0.442894
0.91 0 0 0 0 -0.415276
0.915 0 0 0 0 -0.386617
0.92 0 0 0 0 -0.357072
0.925 0 0 0 0 -0.326824
0.93 0 0 0 0 -0.296081
0.935 0 0 0 0 -0.265079
0.94 0 0 0 0 -0.234083
0.945 0 0 0 0 -0.203385
0.95 0 0 0 0 -0.173305
0.955 0 0 0 0 -0.144194
0.96 0 0 0 0 -0.116429
0.965 0 0 0 0 -0.0904196
0.97 0 0 0 0 -0.0666024
0.975 0 0 0 0 -0.0454411
0.98 0 0 0 0 -0.0274198
0.985 0 0 0 0 -0.0130263
0.99 0 0 0 0 -0.00271292
0.995 0 0 0 0 0.00319739
1 0 0 0 0 0.00472894
0 0.005 0 0 0 0
0.005 0.005 0 0 0 0
0.01 0.005 0 0 0 73.7277
0.015 0.005 0 0 0 62.0559
0.02 0.005 0 0 0 45.6915
0.025 0.005 0 0 0 33.9151
0.03 0.005 0 0 0 26.0194
0.035 0.005 0 0 0 20.6032
0.04 0.005 0 0 0 16.7222
0.045 0.005 0 0 0 13.8216
0.05 0.005 0 0 0 11.5791
0.055 0.005 0 0 0 9.80078
0.06 0.005 0 0 0 8.36467
0.065 0.005 0 0 0 7.18975
0.07 0.005 0 0 0 6.21961
0.075 0.005 0 0 0 5.41333
0.08 0.005 0 0 0 4.74016
0.085 0.005 0 0 0 4.17634
0.09 0.005 0 0 0 3.70315
0.095 0.005 0 0 0 3.30556
0.1 0.005 0 0 0 2.97138
0.105 0.005 0 0 0 2.69062
0.11 0.005 0 0 0 2.45505
0.115 0.005 0 0 0 2.25783
0.12 0.005 0 0 0 2.09329
0.125 0.005 0 0 0 1.95668
0.13 0.005 0 0 0 1.84401
0.135 0.005 0 0 0 1.75196
0.14 0.005 0 0 0 1.67773
0.145 0.005 0 0 0 1.61897
0.15 0.005 0 0 0 1.57369
0.155 0.005 0 0 0 1.54021
0.16 0.005 0 0 0 1.51713
0.165 0.005 0 0 0 1.50325
0.17 0.005 0 0 0 1.49756
0.175 0.005 0 0 0 1.4992
0.18 0.005 0 0 0 1.50745
0.185 0.005 0 0 0 1.52169
0.19 0.005 0 0 0 1.5414
0.195 0.005 0 0 0 1.56611
0.2 0.005 0 0 0 1.59545
0.205 0.005 0 0 0 1.62909
0.21 0.005 0 0 0 1.66672
0.215 0.005 0 0 0 1.7081
0.22 0.005 0 0 0 1.75301
0.225 0.005 0 0 0 1.80124
0.23 0.005 0 0 0 1.85262
0.235 0.005 0 0 0 1.90698
0.24 0.005 0 0 0 1.96418
0.245 0.005 0 0 0 2.02408
0.25 0.005 0 0 0 2.08655
0.255 0.005 0 0 0 2.15145
0.26 0.005 0 0 0 2.21867
0.265 0.005 0 0 0 2.28808
0.27 0.005 0 0 0 2.35957
0.275 0.005 0 0 0 2.43303
0.28 0.005 0 0 0 2.50832
0.285 0.005 0 0 0 2.58533
0.29 0.005 0 0 0 2.66394
0.295 0.005 0 0 0 2.74403
0.3 0.005 0 0 0 2.82545
0.305 0.005 0 0 0 2.9081
0.31 0.005 0 0 0 2.99182
0.315 0.005 0 0 0 3.07648
0.32 0.005 0 0 0 3.16195
0.325 0.005 0 0 0 3.24807
0.33 0.005 0 0 0 3.33469
0.335 0.005 0 0 0 3.42167
0.34 0.005 0 0 0 3.50885
0.345 0.005 0 0 0 3.59607
0.35 0.005 0 0 0 3.68317
0.355 0.005 0 0 0 3.76997
0.36 0.005 0 0 0 3.85632
0.365 0.005 0 0 0 3.94204
0.37 0.005 0 0 0 4.02696
0.375 0.005 0 0 0 4.11091
0.38 0.005 0 0 0 4.1937
0.385 0.005 0 0 0 4.27516
0.39 0.005 0 0 0 4.35512
0.395 0.005 0 0 0 4.43339
0.4 0.005 0 0 0 4.5098
0.405 0.005 0 0 0 4.58417
0.41 0.005 0 0 0 4.65633
0.415 0.005 0 0 0 4.72609
0.42 0.005 0 0 0 4.79329
0.425 0.005 0 0 0 4.85776
0.43 0.005 0 0 0 4.91932
0.435 0.005 0 0 0 4.97783
0.44 0.005 0 0 0 5.03311
0.445 0.005 0 0 0 5.08502
0.45 0.005 0 0 0 5.13341
0.455 0.005 0 0 0 5.17812
0.46 0.005 0 0 0 5.21903
0.465 0.005 0 0 0 5.25601
0.47 0.005 0 0 0 5.28892
0.475 0.005 0 0 0 5.31766
0.48 0.005 0 0 0 5.34212
0.485 0.005 0 0 0 5.3622
0.49 0.005 0 0 0 5.37781
0.495 0.005 0 0 0 5.38887
0.5 0.005 0 0 0 5.39531
0.505 0.005 0 0 0 5.39707
0.51 0.005 0 0 0 5.39411
0.515 0.005 0 0 0 5.38637
0.52 0.005 0 0 0 5.37384
0.525 0.005 0 0 0 5.3565
0.53 0.005 0 0 0 5.33434
0.535 0.005 0 0 0 5.30738
0.54 0.005 0 0 0 5.27563
0.545 0.005 0 0 0 5.23913
0.55 0.005 0 0 0 5.19792
0.555 0.005 0 0 0 5.15206
0.56 0.005 0 0 0 5.10162
0.565 0.005 0 0 0 5.04668
0.57 0.005 0 0 0 4.98733
0.575 0.005 0 0 0 4.92367
0.58 0.005 0 0 0 4.85583
0.585 0.005 0 0 0 4.78394
0.59 0.005 0 0 0 4.70813
0.595 0.005 0 0 0 4.62855
0.6 0.005 0 0 0 4.54536
0.605 0.005 0 0 0 4.45873
0.61 0.005 0 0 0 4.36885
0.615 0.005 0 0 0 4.2759
0.62 0.005 0 0 0 4.18007
0.625 0.005 0 0 0 4.08157
0.63 0.005 0 0 0 3.98061
0.635 0.005 0 0 0 3.87741
0.64 0.005 0 0 0 3.77218
0.645 0.005 0 0 0 3.66515
0.65 0.005 0 0 0 3.55655
0.655 0.005 0 0 0 3.44661
0.66 0.005 0 0 0 3.33557
0.665 0.005 0 0 0 3.22365
0.67 0.005 0 0 0 3.11109
0.675 0.005 0 0 0 2.99813
0.68 0.005 0 0 0 2.885
0.685 0.005 0 0 0 2.77192
0.69 0.005 0 0 0 2.65913
0.695 0.005 0 0 0 2.54683
0.7 0.005 0 0 0 2.43526
0.705 0.005 0 0 0 2.32461
0.71 0.005 0 0 0 2.2151
0.715 0.005 0 0 0 2.10692
0.72 0.005 0 0 0 2.00025
0.725 0.005 0 0 0 1.89529
0.73 0.005 0 0 0 1.79219
0.735 0.005 0 0 0 1.69113
0.74 0.005 0 0 0 1.59225
0.745 0.005 0 0 0 1.4957
0.75 0.005 0 0 0 1.4016
0.755 0.005 0 0 0 1.31008
0.76 0.005 0 0 0 1.22124
0.765 0.005 0 0 0 1.13518
0.77 0.005 0 0 0 1.052
0.775 0.005 0 0 0 0.971758
0.78 0.005 0 0 0 0.894525
0.785 0.005 0 0 0 0.820353
0.79 0.005 0 0 0 0.749285
0.795 0.005 0 0 0 0.681352
0.8 0.005 0 0 0 0.616574
0.805 0.005 0 0 0 0.554963
0.81 0.005 0 0 0 0.496519
0.815 0.005 0 0 0 0.441235
0.82 0.005 0 0 0 0.389094
0.825 0.005 0 0 0 0.340069
0.83 0.005 0 0 0 0.294128
0.835 0.005 0 0 0 0.25123
0.84 0.005 0 0 0 0.211326
0.845 0.005 0 0 0 0.174364
0.85 0.005 0 0 0 0.140282
0.855 0.005 0 0 0 0.109016
0.86 0.005 0 0 0 0.0804966
0.865 0.005 0 0 0 0.0546483
0.87 0.005 0 0 0 0.0313936
0.875 0.005 0 0 0 0.0106515
0.88 0.005 0 0 0 -0.00766226
0.885 0.005 0 0 0 -0.0236341
0.89 0.005 0 0 0 -0.0373528
0.895 0.005 0 0 0 -0.0489089
0.9 0.005 0 0 0 -0.0583946
0.905 0.005 0 0 0 -0.0659038
0.91 0.005 0 0 0 -0.0715321
0.915 0.005 0 0 0 -0.075377
0.92 0.005 0 0 0 -0.0775379
0.925 0.005 0 0 0 -0.0781174
0.93 0.005 0 0 0 -0.0772215
0.935 0.005 0 0 0 -0.074961
0.94 0.005 0 0 0 -0.071453
0.945 0.005 0 0 0 -0.0668231
0.95 0.005 0 0 0 -0.0612078
0.955 0.005 0 0 0 -0.0547584
0.96 0.005 0 0 0 -0.0476455
0.965 0.005 0 0 0 -0.0400647
0.97 0.005 0 0 0 -0.0322449
0.975 0.005 0 0 0 -0.0244578
0.98 0.005 0 0 0 -0.0170303
0.985 0.005 0 0 0 -0.0103572
0.99 0.005 0 0 0 -0.00490738
0.995 0.005 0 0 0 -0.00119623
1 0.005 0 0 0 0.000362161
0 0.01 0 0 0.000362161 0
0.005 0.01 0 0 0 -326.272
0.01 0.01 -0.180029 0.0775699 -0.000921596 -44.4158
0.015 0.01 -0.184795 -0.0350453 -0.000775699 9.51557
0.02 0.01 -0.15626 -0.0351761 -0.000571144 19.1066
0.025 0.01 -0.1274 -0.0245901 -0.000423938 18.9853
0.03 0.01 -0.104015 -0.0166398 -0.000325242 16.8265
0.035 0.01 -0.0858543 -0.0116215 -0.00025754 14.5061
0.04 0.01 -0.0717121 -0.00847699 -0.000209028 12.4529
0.045 0.01 -0.0605319 -0.00642891 -0.000172771 10.7201
0.05 0.01 -0.0515462 -0.00502608 -0.000144738 9.27155
0.055 0.01 -0.0442203 -0.004018 -0.00012251 8.05845
0.06 0.01 -0.0381799 -0.00326379 -0.000104558 7.03786
0.065 0.01 -0.0331567 -0.00268132 -8.98718e-05 6.17534
0.07 0.01 -0.0289535 -0.00222051 -7.77451e-05 5.44373
0.075 0.01 -0.0254208 -0.00184931 -6.76666e-05 4.82154
0.08 0.01 -0.0224424 -0.00154623 -5.92519e-05 4.29149
0.085 0.01 -0.0199264 -0.00129626 -5.22042e-05 3.83955
0.09 0.01 -0.0177987 -0.00108847 -4.62893e-05 3.45413
0.095 0.01 -0.0159986 -0.000914706 -4.13194e-05 3.1256
0.1 0.01 -0.0144763 -0.000768663 -3.71421e-05 2.84588
0.105 0.01 -0.0131904 -0.0006454 -3.36326e-05 2.60813
0.11 0.01 -0.0121061 -0.000540971 -3.0688e-05 2.40658
0.115 0.01 -0.0111945 -0.000452185 -2.82228e-05 2.23631
0.12 0.01 -0.0104312 -0.00037644 -2.61661e-05 2.09314
0.125 0.01 -0.00979545 -0.000311595 -2.44584e-05 1.97349
0.13 0.01 -0.00927001 -0.000255883 -2.305e-05 1.87431
0.135 0.01 -0.00884011 -0.000207835 -2.18995e-05 1.79299
0.14 0.01 -0.0084933 -0.000166231 -2.09716e-05 1.72732
0.145 0.01 -0.00821901 -0.000130052 -2.02371e-05 1.67538
0.15 0.01 -0.00800828 -9.8443e-05 -1.9671e-05 1.63553
0.155 0.01 -0.0078535 -7.06911e-05 -1.92526e-05 1.60639
0.16 0.01 -0.0077482 -4.61971e-05 -1.8964e-05 1.58675
0.165 0.01 -0.00768685 -2.4458e-05 -1.87905e-05 1.57559
0.17 0.01 -0.00766478 -5.05192e-06 -1.87194e-05 1.57203
0.175 0.01 -0.00767798 1.23757e-05 -1.87399e-05 1.5753
0.18 0.01 -0.00772302 2.81224e-05 -1.88431e-05 1.58475
0.185 0.01 -0.00779698 4.24378e-05 -1.90211e-05 1.59983
0.19 0.01 -0.00789733 5.55309e-05 -1.92674e-05 1.62005
0.195 0.01 -0.00802192 6.75766e-05 -1.95764e-05 1.64497
0.2 0.01 -0.00816887 7.87212e-05 -1.99431e-05 1.67424
0.205 0.01 -0.00833656 8.9086e-05 -2.03635e-05 1.70754
0.21 0.01 -0.00852354 9.87721e-05 -2.08339e-05 1.74457
0.215 0.01 -0.00872859 0.000107863 -2.13512e-05 1.7851
0.22 0.01 -0.00895057 0.000116426 -2.19125e-05 1.82889
0.225 0.01 -0.0091885 0.000124519 -2.25154e-05 1.87574
0.23 0.01 -0.00944148 0.000132185 -2.31577e-05 1.92547
0.235 0.01 -0.00970868 0.000139462 -2.38373e-05 1.97791
0.24 0.01 -0.00998934 0.000146378 -2.45523e-05 2.0329
0.245 0.01 -0.0102827 0.000152955 -2.5301e-05 2.0903
0.25 0.01 -0.0105882 0.000159209 -2.60818e-05 2.14996
0.255 0.01 -0.0109051 0.000165153 -2.68931e-05 2.21175
0.26 0.01 -0.0112328 0.000170794 -2.77333e-05 2.27554
0.265 0.01 -0.0115706 0.000176136 -2.8601e-05 2.3412
0.27 0.01 -0.011918 0.000181183 -2.94947e-05 2.40861
0.275 0.01 -0.0122744 0.000185932 -3.04128e-05 2.47764
0.28 0.01 -0.012639 0.000190382 -3.1354e-05 2.54816
0.285 0.01 -0.0130114 0.000194529 -3.23167e-05 2.62005
0.29 0.01 -0.013391 0.000198366 -3.32993e-05 2.69318
0.295 0.01 -0.0137769 0.000201887 -3.43003e-05 2.76742
0.3 0.01 -0.0141687 0.000205086 -3.53182e-05 2.84265
0.305 0.01 -0.0145657 0.000207953 -3.63512e-05 2.91873
0.31 0.01 -0.0149672 0.00021048 -3.73977e-05 2.99553
0.315 0.01 -0.0153725 0.000212658 -3.8456e-05 3.0729
0.32 0.01 -0.0157809 0.000214477 -3.95244e-05 3.15072
0.325 0.01 -0.0161916 0.00021593 -4.06009e-05 3.22884
0.33 0.01 -0.0166041 0.000217005 -4.16837e-05 3.30711
0.335 0.01 -0.0170174 0.000217696 -4.2771e-05 3.3854
0.34 0.01 -0.0174309 0.000217992 -4.38607e-05 3.46354
0.345 0.01 -0.0178438 0.000217886 -4.4951e-05 3.5414
0.35 0.01 -0.0182553 0.000217369 -4.60397e-05 3.61883
0.355 0.01 -0.0186647 0.000216436 -4.71247e-05 3.69566
0.36 0.01 -0.019071 0.000215079 -4.82041e-05 3.77174
0.365 0.01 -0.0194734 0.000213292 -4.92756e-05 3.84693
0.37 0.01 -0.0198713 0.000211071 -5.03371e-05 3.92106
0.375 0.01 -0.0202637 0.000208411 -5.13864e-05 3.99398
0.38 0.01 -0.0206498 0.00020531 -5.24214e-05 4.06553
0.385 0.01 -0.0210287 0.000201765 -5.34397e-05 4.13557
0.39 0.01 -0.0213997 0.000197775 -5.44391e-05 4.20392
0.395 0.01 -0.0217619 0.00019334 -5.54176e-05 4.27045
0.4 0.01 -0.0221146 0.000188461 -5.63727e-05 4.33499
0.405 0.01 -0.0224567 0.00018314 -5.73023e-05 4.39741
0.41 0.01 -0.0227877 0.000177381 -5.82042e-05 4.45754
0.415 0.01 -0.0231066 0.000171188 -5.90763e-05 4.51526
0.42 0.01 -0.0234127 0.000164567 -5.99163e-05 4.57041
0.425 0.01 -0.0237052 0.000157526 -6.07221e-05 4.62285
0.43 0.01 -0.0239833 0.000150073 -6.14917e-05 4.67246
0.435 0.01 -0.0242464 0.000142217 -6.22231e-05 4.7191
0.44 0.01 -0.0244936 0.00013397 -6.29141e-05 4.76264
0.445 0.01 -0.0247244 0.000125344 -6.3563e-05 4.80298
0.45 0.01 -0.0249381 0.000116353 -6.41678e-05 4.83999
0.455 0.01 -0.025134 0.00010701 -6.47267e-05 4.87356
0.46 0.01 -0.0253115 9.73337e-05 -6.52381e-05 4.90359
0.465 0.01 -0.0254701 8.73401e-05 -6.57003e-05 4.92999
0.47 0.01 -0.0256092 7.70482e-05 -6.61118e-05 4.95266
0.475 0.01 -0.0257284 6.64777e-05 -6.64711e-05 4.97153
0.48 0.01 -0.0258271 5.56498e-05 -6.67768e-05 4.98652
0.485 0.01 -0.025905 4.45866e-05 -6.70278e-05 4.99756
0.49 0.01 -0.0259618 3.33113e-05 -6.7223e-05 5.0046
0.495 0.01 -0.025997 2.18481e-05 -6.73612e-05 5.00759
0.5 0.01 -0.0260104 1.02223e-05 -6.74417e-05 5.00647
0.505 0.01 -0.0260017 -1.53989e-06 -6.74637e-05 5.00124
0.51 0.01 -0.0259709 -1.34115e-05 -6.74266e-05 4.99185
0.515 0.01 -0.0259177 -2.53648e-05 -6.73299e-05 4.97829
0.52 0.01 -0.0258421 -3.73714e-05 -6.71733e-05 4.96057
0.525 0.01 -0.025744 -4.9402e-05 -6.69565e-05 4.93868
0.53 0.01 -0.0256235 -6.14271e-05 -6.66796e-05 4.91265
0.535 0.01 -0.0254807 -7.34167e-05 -6.63425e-05 4.88249
0.54 0.01 -0.0253156 -8.53405e-05 -6.59457e-05 4.84823
0.545 0.01 -0.0251286 -9.71678e-05 -6.54895e-05 4.80993
0.55 0.01 -0.0249198 -0.000108868 -6.49744e-05 4.76764
0.555 0.01 -0.0246895 -0.000120411 -6.44011e-05 4.72141
0.56 0.01 -0.024438 -0.000131765 -6.37706e-05 4.67133
0.565 0.01 -0.0241659 -0.0001429 -6.30838e-05 4.61747
0.57 0.01 -0.0238735 -0.000153788 -6.23419e-05 4.55993
0.575 0.01 -0.0235614 -0.000164397 -6.15462e-05 4.4988
0.58 0.01 -0.0232302 -0.0001747 -6.06983e-05 4.43419
0.585 0.01 -0.0228804 -0.000184668 -5.97996e-05 4.36623
0.59 0.01 -0.0225127 -0.000194274 -5.88519e-05 4.29504
0.595 0.01 -0.0221278 -0.000203492 -5.78572e-05 4.22075
0.6 0.01 -0.0217265 -0.000212297 -5.68173e-05 4.1435
0.605 0.01 -0.0213096 -0.000220666 -5.57345e-05 4.06345
0.61 0.01 -0.0208779 -0.000228576 -5.4611e-05 3.98074
0.615 0.01 -0.0204322 -0.000236006 -5.3449e-05 3.89555
0.62 0.01 -0.0199736 -0.000242938 -5.22512e-05 3.80803
0.625 0.01 -0.019503 -0.000249353 -5.102e-05 3.71836
0.63 0.01 -0.0190212 -0.000255236 -4.9758e-05 3.62672
0.635 0.01 -0.0185293 -0.000260573 -4.84679e-05 3.53329
0.64 0.01 -0.0180284 -0.000265352 -4.71525e-05 3.43825
0.645 0.01 -0.0175194 -0.000269564 -4.58147e-05 3.34179
0.65 0.01 -0.0170034 -0.000273201 -4.44572e-05 3.24411
0.655 0.01 -0.0164814 -0.000276257 -4.30829e-05 3.14539
0.66 0.01 -0.0159546 -0.000278729 -4.16948e-05 3.04582
0.665 0.01 -0.015424 -0.000280616 -4.02959e-05 2.94561
0.67 0.01 -0.0148906 -0.000281919 -3.88889e-05 2.84494
0.675 0.01 -0.0143556 -0.00028264 -3.74769e-05 2.744
0.68 0.01 -0.0138199 -0.000282786 -3.60627e-05 2.64299
0.685 0.01 -0.0132847 -0.000282364 -3.46493e-05 2.54209
0.69 0.01 -0.012751 -0.000281383 -3.32393e-05 2.4415
0.695 0.01 -0.0122197 -0.000279856 -3.18356e-05 2.34138
0.7 0.01 -0.0116918 -0.000277795 -3.04409e-05 2.24193
0.705 0.01 -0.0111684 -0.000275216 -2.90578e-05 2.1433
0.71 0.01 -0.0106503 -0.000272136 -2.76889e-05 2.04568
0.715 0.01 -0.0101385 -0.000268575 -2.63366e-05 1.94922
0.72 0.01 -0.00963373 -0.000264552 -2.50033e-05 1.85408
0.725 0.01 -0.00913692 -0.00026009 -2.36913e-05 1.76041
0.73 0.01 -0.00864883 -0.000255212 -2.24026e-05 1.66835
0.735 0.01 -0.0081702 -0.000249941 -2.11393e-05 1.57804
0.74 0.01 -0.00770173 -0.000244304 -1.99033e-05 1.4896
0.745 0.01 -0.00724407 -0.000238327 -1.86963e-05 1.40315
0.75 0.01 -0.00679782 -0.000232036 -1.75201e-05 1.31881
0.755 0.01 -0.00636354 -0.000225459 -1.6376e-05 1.23668
0.76 0.01 -0.00594173 -0.000218624 -1.52656e-05 1.15684
0.765 0.01 -0.00553287 -0.000211558 -1.41899e-05 1.07939
0.77 0.01 -0.00513733 -0.00020429 -1.315e-05 1.0044
0.775 0.01 -0.0047555 -0.000196849 -1.2147e-05 0.931943
0.78 0.01 -0.00438766 -0.000189261 -1.11816e-05 0.862067
0.785 0.01 -0.00403407 -0.000181554 -1.02545e-05 0.794825
0.79 0.01 -0.00369494 -0.000173756 -9.36609e-06 0.730257
0.795 0.01 -0.00337042 -0.000165892 -8.51692e-06 0.668395
0.8 0.01 -0.00306063 -0.000157989 -7.70719e-06 0.609262
0.805 0.01 -0.00276563 -0.00015007 -6.93704e-06 0.552872
0.81 0.01 -0.00248543 -0.000142161 -6.20649e-06 0.499232
0.815 0.01 -0.00222001 -0.000134283 -5.51544e-06 0.448341
0.82 0.01 -0.00196931 -0.000126458 -4.86367e-06 0.40019
0.825 0.01 -0.00173322 -0.000118707 -4.25085e-06 0.354764
0.83 0.01 -0.00151161 -0.000111049 -3.67659e-06 0.312039
0.835 0.01 -0.00130429 -0.000103501 -3.14036e-06 0.271987
0.84 0.01 -0.00111107 -9.60809e-05 -2.64156e-06 0.234572
0.845 0.01 -0.00093169 -8.88033e-05 -2.17953e-06 0.199754
0.85 0.01 -0.0007659 -8.16821e-05 -1.75351e-06 0.167487
0.855 0.01 -0.000613404 -7.47299e-05 -1.36268e-06 0.13772
0.86 0.01 -0.000473889 -6.79579e-05 -1.00618e-06 0.110397
0.865 0.01 -0.00034702 -6.13761e-05 -6.83077e-07 0.0854584
0.87 0.01 -0.000232444 -5.49933e-05 -3.92393e-07 0.0628417
0.875 0.01 -0.000129789 -4.88171e-05 -1.33116e-07 0.0424799
0.88 0.01 -3.86706e-05 -4.28542e-05 9.58067e-08 0.024303
0.885 0.01 4.13094e-05 -3.71104e-05 2.95455e-07 0.00823855
0.89 0.01 0.000110561 -3.15906e-05 4.66939e-07 -0.00578886
0.895 0.01 0.000169506 -2.62994e-05 6.11389e-07 -0.0178569
0.9 0.01 0.000218575 -2.12409e-05 7.2996e-07 -0.0280458
0.905 0.01 0.000258209 -1.64192e-05 8.23824e-07 -0.0364379
0.91 0.01 0.000288858 -1.18388e-05 8.94177e-07 -0.0431181
0.915 0.01 0.000310986 -7.50469e-06 9.42236e-07 -0.0481742
0.92 0.01 0.000325066 -3.42318e-06 9.69246e-07 -0.0516967
0.925 0.01 0.00033159 3.97758e-07 9.76489e-07 -0.0537798
0.93 0.01 0.000331067 3.94763e-06 9.65288e-07 -0.0545222
0.935 0.01 0.000324033 7.21256e-06 9.3703e-07 -0.0540275
0.94 0.01 0.000311052 1.01742e-05 8.93178e-07 -0.0524063
0.945 0.01 0.000292733 1.28081e-05 8.35302e-07 -0.0497768
0.95 0.01 0.000269733 1.50822e-05 7.65109e-07 -0.0462678
0.955 0.01 0.000242777 1.69541e-05 6.84491e-07 -0.0420202
0.96 0.01 0.000212675 1.83682e-05 5.95577e-07 -0.0371904
0.965 0.01 0.000180344 1.92516e-05 5.00816e-07 -0.0319531
0.97 0.01 0.000146832 1.95094e-05 4.03066e-07 -0.0265043
0.975 0.01 0.000113354 1.90188e-05 3.05725e-07 -0.0210638
0.98 0.01 8.13175e-05 1.7626e-05 2.1288e-07 -0.015874
0.985 0.01 5.23402e-05 1.51538e-05 1.29466e-07 -0.0111905
0.99 0.01 2.82255e-05 1.14513e-05 6.13424e-08 -0.00725226
0.995 0.01 1.08098e-05 6.58695e-06 1.49527e-08 -0.00420413
1 0.01 1.49158e-06 1.49527e-06 -4.52717e-09 -0.00191911
0 0.015 0 0 -0.00119327 0
0.005 0.015 0 0 0 -255.977
0.01 0.015 -0.152817 0.184795 -0.00180029 -79.2741
0.015 0.015 -0.206136 -0.0237689 -0.00184795 -16.6453
0.02 0.015 -0.204431 -0.0573946 -0.0015626 2.3254
0.025 0.015 -0.184415 -0.0522448 -0.001274 7.95102
0.03 0.015 -0.160968 -0.0415457 -0.00104015 9.28402
0.035 0.015 -0.139078 -0.0323032 -0.000858543 9.15852
0.04 0.015 -0.120018 -0.0253225 -0.000717121 8.54462
0.045 0.015 -0.103807 -0.0201659 -0.000605319 7.79667
0.05 0.015 -0.0901053 -0.0163116 -0.000515462 7.04814
0.055 0.015 -0.0785242 -0.0133663 -0.000442203 6.34838
0.06 0.015 -0.0687143 -0.0110636 -0.000381798 5.71347
0.065 0.015 -0.060384 -0.00922631 -0.000331567 5.14596
0.07 0.015 -0.0532951 -0.00773592 -0.000289535 4.64301
0.075 0.015 -0.0472532 -0.00651109 -0.000254208 4.19975
0.08 0.015 -0.0420987 -0.00549432 -0.000224424 3.81069
0.085 0.015 -0.0376997 -0.0046437 -0.000199264 3.47039
0.09 0.015 -0.033946 -0.00392778 -0.000177987 3.17371
0.095 0.015 -0.0307453 -0.00332231 -0.000159986 2.91591
0.1 0.015 -0.0280196 -0.00280821 -0.000144763 2.69268
0.105 0.015 -0.0257028 -0.00237019 -0.000131904 2.50015
0.11 0.015 -0.023739 -0.00199583 -0.000121061 2.33483
0.115 0.015 -0.0220802 -0.00167493 -0.000111945 2.19364
0.12 0.015 -0.020686 -0.00139903 -0.000104311 2.07384
0.125 0.015 -0.0195214 -0.00116112 -9.79542e-05 1.973
0.13 0.015 -0.0185568 -0.000955315 -9.26998e-05 1.88898
0.135 0.015 -0.0177669 -0.00077668 -8.84008e-05 1.8199
0.14 0.015 -0.01713 -0.000621068 -8.49327e-05 1.76411
0.145 0.015 -0.0166274 -0.000484985 -8.21898e-05 1.72017
0.15 0.015 -0.0162433 -0.000365479 -8.00826e-05 1.68679
0.155 0.015 -0.0159642 -0.000260061 -7.85348e-05 1.66288
0.16 0.015 -0.0157782 -0.000166624 -7.74817e-05 1.64747
0.165 0.015 -0.0156755 -8.33891e-05 -7.68683e-05 1.6397
0.17 0.015 -0.0156474 -8.85129e-06 -7.66476e-05 1.63883
0.175 0.015 -0.0156866 5.82609e-05 -7.67796e-05 1.64422
0.18 0.015 -0.0157867 0.000119021 -7.723e-05 1.6553
0.185 0.015 -0.0159422 0.000174336 -7.79696e-05 1.67158
0.19 0.015 -0.0161484 0.000224968 -7.89731e-05 1.6926
0.195 0.015 -0.0164012 0.00027156 -8.02191e-05 1.71799
0.2 0.015 -0.0166969 0.000314649 -8.16886e-05 1.74741
0.205 0.015 -0.0170324 0.000354686 -8.33654e-05 1.78055
0.21 0.015 -0.017405 0.000392047 -8.52353e-05 1.81713
0.215 0.015 -0.0178122 0.000427044 -8.72857e-05 1.85692
0.22 0.015 -0.0182519 0.000459932 -8.95056e-05 1.89969
0.225 0.015 -0.0187219 0.000490924 -9.18849e-05 1.94524
0.23 0.015 -0.0192206 0.000520191 -9.44147e-05 1.99339
0.235 0.015 -0.0197463 0.00054787 -9.70867e-05 2.04395
0.24 0.015 -0.0202974 0.000574072 -9.98933e-05 2.09677
0.245 0.015 -0.0208724 0.000598881 -0.000102827 2.1517
0.25 0.015 -0.0214701 0.000622362 -0.000105882 2.20858
0.255 0.015 -0.022089 0.000644563 -0.000109051 2.26728
0.26 0.015 -0.0227278 0.000665515 -0.000112328 2.32766
0.265 0.015 -0.0233854 0.000685239 -0.000115706 2.38958
0.27 0.015 -0.0240604 0.000703744 -0.00011918 2.45291
0.275 0.015 -0.0247516 0.000721031 -0.000122744 2.51753
0.28 0.015 -0.0254578 0.000737093 -0.00012639 2.58329
0.285 0.015 -0.0261777 0.000751918 -0.000130115 2.65008
0.29 0.015 -0.02691 0.000765487 -0.00013391 2.71775
0.295 0.015 -0.0276535 0.000777779 -0.000137769 2.78619
0.3 0.015 -0.0284068 0.000788769 -0.000141688 2.85525
0.305 0.015 -0.0291687 0.000798431 -0.000145657 2.92481
0.31 0.015 -0.0299379 0.000806735 -0.000149672 2.99473
0.315 0.015 -0.0307128 0.000813652 -0.000153725 3.06487
0.32 0.015 -0.0314923 0.000819152 -0.000157809 3.13511
0.325 0.015 -0.0322747 0.000823204 -0.000161917 3.20531
0.33 0.015 -0.0330588 0.000825781 -0.000166041 3.27532
0.335 0.015 -0.0338431 0.000826852 -0.000170175 3.34501
0.34 0.015 -0.034626 0.00082639 -0.00017431 3.41424
0.345 0.015 -0.0354062 0.000824372 -0.000178439 3.48288
0.35 0.015 -0.036182 0.000820772 -0.000182554 3.55078
0.355 0.015 -0.0369519 0.000815571 -0.000186647 3.6178
0.36 0.015 -0.0377145 0.000808749 -0.00019071 3.6838
0.365 0.015 -0.0384681 0.000800293 -0.000194735 3.74865
0.37 0.015 -0.0392112 0.000790189 -0.000198713 3.81221
0.375 0.015 -0.0399423 0.000778428 -0.000202637 3.87435
0.38 0.015 -0.0406598 0.000765006 -0.000206498 3.93492
0.385 0.015 -0.0413621 0.000749922 -0.000210288 3.9938
0.39 0.015 -0.0420477 0.000733177 -0.000213998 4.05085
0.395 0.015 -0.042715 0.000714778 -0.00021762 4.10595
0.4 0.015 -0.0433626 0.000694736 -0.000221146 4.15897
0.405 0.015 -0.0439889 0.000673066 -0.000224568 4.20979
0.41 0.015 -0.0445924 0.000649788 -0.000227877 4.25828
0.415 0.015 -0.0451718 0.000624925 -0.000231067 4.30434
0.42 0.015 -0.0457255 0.000598505 -0.000234127 4.34786
0.425 0.015 -0.0462522 0.000570561 -0.000237052 4.38872
0.43 0.015 -0.0467506 0.000541132 -0.000239834 4.42682
0.435 0.015 -0.0472193 0.000510259 -0.000242464 4.46206
0.44 0.015 -0.047657 0.000477988 -0.000244937 4.49436
0.445 0.015 -0.0480627 0.00044437 -0.000247245 4.52362
0.45 0.015 -0.048435 0.000409462 -0.000249382 4.54977
0.455 0.015 -0.048773 0.000373323 -0.000251341 4.57273
0.46 0.015 -0.0490756 0.000336018 -0.000253116 4.59242
0.465 0.015 -0.0493418 0.000297615 -0.000254702 4.60879
0.47 0.015 -0.0495707 0.000258187 -0.000256093 4.62177
0.475 0.015 -0.0497615 0.00021781 -0.000257285 4.63132
0.48 0.015 -0.0499135 0.000176567 -0.000258272 4.6374
0.485 0.015 -0.0500259 0.00013454 -0.000259051 4.63997
0.49 0.015 -0.0500982 9.18177e-05 -0.000259619 4.63899
0.495 0.015 -0.0501299 4.84917e-05 -0.000259971 4.63445
0.5 0.015 -0.0501205 4.65615e-06 -0.000260105 4.62634
0.505 0.015 -0.0500698 -3.95917e-05 -0.000260018 4.61464
0.51 0.015 -0.0499774 -8.41519e-05 -0.00025971 4.59935
0.515 0.015 -0.0498433 -0.000128922 -0.000259178 4.58049
0.52 0.015 -0.0496674 -0.000173798 -0.000258422 4.55807
0.525 0.015 -0.0494497 -0.000218674 -0.000257441 4.53211
0.53 0.015 -0.0491904 -0.000263442 -0.000256236 4.50264
0.535 0.015 -0.0488896 -0.000307993 -0.000254808 4.46971
0.54 0.015 -0.0485478 -0.000352218 -0.000253158 4.43335
0.545 0.015 -0.0481654 -0.000396007 -0.000251287 4.39362
0.55 0.015 -0.0477429 -0.000439251 -0.000249199 4.35058
0.555 0.015 -0.0472808 -0.00048184 -0.000246896 4.30429
0.56 0.015 -0.0467801 -0.000523665 -0.000244382 4.25484
0.565 0.015 -0.0462414 -0.000564618 -0.00024166 4.20229
0.57 0.015 -0.0456656 -0.000604595 -0.000238737 4.14675
0.575 0.015 -0.0450539 -0.000643492 -0.000235616 4.0883
0.58 0.015 -0.0444072 -0.000681207 -0.000232303 4.02705
0.585 0.015 -0.0437267 -0.000717642 -0.000228805 3.96309
0.59 0.015 -0.0430138 -0.000752702 -0.000225128 3.89655
0.595 0.015 -0.0422697 -0.000786297 -0.000221279 3.82754
0.6 0.015 -0.0414959 -0.000818339 -0.000217266 3.75618
0.605 0.015 -0.0406938 -0.000848746 -0.000213097 3.68261
0.61 0.015 -0.0398651 -0.000877441 -0.00020878 3.60694
0.615 0.015 -0.0390113 -0.000904352 -0.000204324 3.52933
0.62 0.015 -0.0381341 -0.000929414 -0.000199737 3.44991
0.625 0.015 -0.0372353 -0.000952566 -0.000195031 3.36881
0.63 0.015 -0.0363167 -0.000973755 -0.000190213 3.2862
0.635 0.015 -0.0353799 -0.000992934 -0.000185294 3.20221
0.64 0.015 -0.0344271 -0.00101006 -0.000180285 3.11701
0.645 0.015 -0.0334599 -0.00102511 -0.000175195 3.03073
0.65 0.015 -0.0324803 -0.00103805 -0.000170035 2.94354
0.655 0.015 -0.0314904 -0.00104886 -0.000164815 2.85559
0.66 0.015 -0.0304919 -0.00105754 -0.000159547 2.76704
0.665 0.015 -0.0294868 -0.00106408 -0.000154241 2.67803
0.67 0.015 -0.0284772 -0.00106848 -0.000148907 2.58874
0.675 0.015 -0.0274649 -0.00107077 -0.000143557 2.4993
0.68 0.015 -0.0264518 -0.00107095 -0.0001382 2.40987
0.685 0.015 -0.0254398 -0.00106906 -0.000132848 2.32061
0.69 0.015 -0.0244309 -0.00106514 -0.00012751 2.23165
0.695 0.015 -0.0234268 -0.00105921 -0.000122197 2.14315
0.7 0.015 -0.0224294 -0.00105134 -0.000116919 2.05525
0.705 0.015 -0.0214403 -0.00104158 -0.000111685 1.96809
0.71 0.015 -0.0204612 -0.00102999 -0.000106504 1.8818
0.715 0.015 -0.0194939 -0.00101664 -0.000101385 1.79651
0.72 0.015 -0.0185399 -0.0010016 -9.63378e-05 1.71235
0.725 0.015 -0.0176006 -0.000984951 -9.13698e-05 1.62945
0.73 0.015 -0.0166776 -0.000966772 -8.64888e-05 1.5479
0.735 0.015 -0.0157721 -0.000947153 -8.17025e-05 1.46784
0.74 0.015 -0.0148855 -0.000926182 -7.70177e-05 1.38936
0.745 0.015 -0.0140189 -0.000903955 -7.24411e-05 1.31255
0.75 0.015 -0.0131735 -0.000880567 -6.79785e-05 1.23752
0.755 0.015 -0.0123503 -0.000856117 -6.36357e-05 1.16435
0.76 0.015 -0.0115503 -0.000830705 -5.94176e-05 1.09312
0.765 0.015 -0.0107742 -0.000804431 -5.53289e-05 1.02389
0.77 0.015 -0.0100229 -0.000777396 -5.13736e-05 0.956741
0.775 0.015 -0.00929695 -0.000749701 -4.75552e-05 0.891726
0.78 0.015 -0.00859702 -0.000721448 -4.38767e-05 0.828897
0.785 0.015 -0.00792357 -0.000692735 -4.03408e-05 0.7683
0.79 0.015 -0.007277 -0.00066366 -3.69495e-05 0.709973
0.795 0.015 -0.00665763 -0.000634319 -3.37043e-05 0.653947
0.8 0.015 -0.00606567 -0.000604806 -3.06064e-05 0.600246
0.805 0.015 -0.00550127 -0.000575211 -2.76563e-05 0.54889
0.81 0.015 -0.0049645 -0.000545621 -2.48543e-05 0.499888
0.815 0.015 -0.00445533 -0.00051612 -2.22001e-05 0.453246
0.82 0.015 -0.00397368 -0.000486788 -1.96931e-05 0.408964
0.825 0.015 -0.00351938 -0.0004577 -1.73322e-05 0.367034
0.83 0.015 -0.0030922 -0.000428929 -1.51161e-05 0.327443