Title=" Lid Driven Flow"
VARIABLES="X","Y","U","V","psi","xi"
ZONE T= "BOX", I= 257, J=257, F=POINT
0 0 0 0 -306.133 0
0.00390625 0 0 0 0 0
0.0078125 0 0 0 0 0
0.0117188 0 0 0 0 -416.842
0.015625 0 0 0 0 -326.39
0.0195313 0 0 0 0 -259.803
0.0234375 0 0 0 0 -212.83
0.0273438 0 0 0 0 -179.546
0.03125 0 0 0 0 -155.474
0.0351563 0 0 0 0 -137.595
0.0390625 0 0 0 0 -123.941
0.0429688 0 0 0 0 -113.228
0.046875 0 0 0 0 -104.614
0.0507813 0 0 0 0 -97.5328
0.0546875 0 0 0 0 -91.601
0.0585938 0 0 0 0 -86.5497
0.0625 0 0 0 0 -82.1877
0.0664063 0 0 0 0 -78.3754
0.0703125 0 0 0 0 -75.0092
0.0742188 0 0 0 0 -72.0102
0.078125 0 0 0 0 -69.3176
0.0820313 0 0 0 0 -66.8838
0.0859375 0 0 0 0 -64.6707
0.0898438 0 0 0 0 -62.6476
0.09375 0 0 0 0 -60.7894
0.0976563 0 0 0 0 -59.0754
0.101563 0 0 0 0 -57.4883
0.105469 0 0 0 0 -56.0137
0.109375 0 0 0 0 -54.639
0.113281 0 0 0 0 -53.3539
0.117188 0 0 0 0 -52.1493
0.121094 0 0 0 0 -51.0172
0.125 0 0 0 0 -49.951
0.128906 0 0 0 0 -48.9445
0.132813 0 0 0 0 -47.9927
0.136719 0 0 0 0 -47.0907
0.140625 0 0 0 0 -46.2346
0.144531 0 0 0 0 -45.4206
0.148438 0 0 0 0 -44.6456
0.152344 0 0 0 0 -43.9064
0.15625 0 0 0 0 -43.2006
0.160156 0 0 0 0 -42.5258
0.164063 0 0 0 0 -41.8797
0.167969 0 0 0 0 -41.2604
0.171875 0 0 0 0 -40.6663
0.175781 0 0 0 0 -40.0955
0.179688 0 0 0 0 -39.5468
0.183594 0 0 0 0 -39.0186
0.1875 0 0 0 0 -38.5099
0.191406 0 0 0 0 -38.0194
0.195313 0 0 0 0 -37.546
0.199219 0 0 0 0 -37.0889
0.203125 0 0 0 0 -36.6471
0.207031 0 0 0 0 -36.2198
0.210938 0 0 0 0 -35.8062
0.214844 0 0 0 0 -35.4056
0.21875 0 0 0 0 -35.0174
0.222656 0 0 0 0 -34.6409
0.226563 0 0 0 0 -34.2756
0.230469 0 0 0 0 -33.9208
0.234375 0 0 0 0 -33.5762
0.238281 0 0 0 0 -33.2412
0.242188 0 0 0 0 -32.9154
0.246094 0 0 0 0 -32.5984
0.25 0 0 0 0 -32.2898
0.253906 0 0 0 0 -31.9892
0.257813 0 0 0 0 -31.6963
0.261719 0 0 0 0 -31.4108
0.265625 0 0 0 0 -31.1323
0.269531 0 0 0 0 -30.8605
0.273438 0 0 0 0 -30.5953
0.277344 0 0 0 0 -30.3363
0.28125 0 0 0 0 -30.0832
0.285156 0 0 0 0 -29.8359
0.289063 0 0 0 0 -29.5942
0.292969 0 0 0 0 -29.3577
0.296875 0 0 0 0 -29.1264
0.300781 0 0 0 0 -28.9
0.304688 0 0 0 0 -28.6784
0.308594 0 0 0 0 -28.4614
0.3125 0 0 0 0 -28.2487
0.316406 0 0 0 0 -28.0403
0.320313 0 0 0 0 -27.8361
0.324219 0 0 0 0 -27.6358
0.328125 0 0 0 0 -27.4393
0.332031 0 0 0 0 -27.2466
0.335938 0 0 0 0 -27.0574
0.339844 0 0 0 0 -26.8717
0.34375 0 0 0 0 -26.6893
0.347656 0 0 0 0 -26.5101
0.351563 0 0 0 0 -26.3341
0.355469 0 0 0 0 -26.1611
0.359375 0 0 0 0 -25.9911
0.363281 0 0 0 0 -25.8238
0.367188 0 0 0 0 -25.6593
0.371094 0 0 0 0 -25.4975
0.375 0 0 0 0 -25.3382
0.378906 0 0 0 0 -25.1814
0.382813 0 0 0 0 -25.027
0.386719 0 0 0 0 -24.875
0.390625 0 0 0 0 -24.7251
0.394531 0 0 0 0 -24.5775
0.398438 0 0 0 0 -24.432
0.402344 0 0 0 0 -24.2885
0.40625 0 0 0 0 -24.147
0.410156 0 0 0 0 -24.0074
0.414063 0 0 0 0 -23.8696
0.417969 0 0 0 0 -23.7336
0.421875 0 0 0 0 -23.5994
0.425781 0 0 0 0 -23.4668
0.429688 0 0 0 0 -23.3357
0.433594 0 0 0 0 -23.2063
0.4375 0 0 0 0 -23.0783
0.441406 0 0 0 0 -22.9517
0.445313 0 0 0 0 -22.8265
0.449219 0 0 0 0 -22.7025
0.453125 0 0 0 0 -22.5799
0.457031 0 0 0 0 -22.4584
0.460938 0 0 0 0 -22.3381
0.464844 0 0 0 0 -22.2189
0.46875 0 0 0 0 -22.1006
0.472656 0 0 0 0 -21.9834
0.476563 0 0 0 0 -21.8671
0.480469 0 0 0 0 -21.7516
0.484375 0 0 0 0 -21.6369
0.488281 0 0 0 0 -21.523
0.492188 0 0 0 0 -21.4098
0.496094 0 0 0 0 -21.2972
0.5 0 0 0 0 -21.1851
0.503906 0 0 0 0 -21.0736
0.507813 0 0 0 0 -20.9625
0.511719 0 0 0 0 -20.8518
0.515625 0 0 0 0 -20.7415
0.519531 0 0 0 0 -20.6313
0.523438 0 0 0 0 -20.5214
0.527344 0 0 0 0 -20.4116
0.53125 0 0 0 0 -20.3019
0.535156 0 0 0 0 -20.1922
0.539063 0 0 0 0 -20.0824
0.542969 0 0 0 0 -19.9724
0.546875 0 0 0 0 -19.8623
0.550781 0 0 0 0 -19.7519
0.554688 0 0 0 0 -19.6411
0.558594 0 0 0 0 -19.53
0.5625 0 0 0 0 -19.4184
0.566406 0 0 0 0 -19.3062
0.570313 0 0 0 0 -19.1934
0.574219 0 0 0 0 -19.0799
0.578125 0 0 0 0 -18.9658
0.582031 0 0 0 0 -18.8508
0.585938 0 0 0 0 -18.7349
0.589844 0 0 0 0 -18.6182
0.59375 0 0 0 0 -18.5005
0.597656 0 0 0 0 -18.3819
0.601563 0 0 0 0 -18.2622
0.605469 0 0 0 0 -18.1414
0.609375 0 0 0 0 -18.0195
0.613281 0 0 0 0 -17.8966
0.617188 0 0 0 0 -17.7725
0.621094 0 0 0 0 -17.6473
0.625 0 0 0 0 -17.5211
0.628906 0 0 0 0 -17.3938
0.632813 0 0 0 0 -17.2654
0.636719 0 0 0 0 -17.1361
0.640625 0 0 0 0 -17.0058
0.644531 0 0 0 0 -16.8748
0.648438 0 0 0 0 -16.743
0.652344 0 0 0 0 -16.6106
0.65625 0 0 0 0 -16.4778
0.660156 0 0 0 0 -16.3446
0.664063 0 0 0 0 -16.2113
0.667969 0 0 0 0 -16.0781
0.671875 0 0 0 0 -15.9451
0.675781 0 0 0 0 -15.8127
0.679688 0 0 0 0 -15.681
0.683594 0 0 0 0 -15.5504
0.6875 0 0 0 0 -15.4211
0.691406 0 0 0 0 -15.2935
0.695313 0 0 0 0 -15.168
0.699219 0 0 0 0 -15.0448
0.703125 0 0 0 0 -14.9244
0.707031 0 0 0 0 -14.8071
0.710938 0 0 0 0 -14.6934
0.714844 0 0 0 0 -14.5837
0.71875 0 0 0 0 -14.4785
0.722656 0 0 0 0 -14.3782
0.726563 0 0 0 0 -14.2832
0.730469 0 0 0 0 -14.194
0.734375 0 0 0 0 -14.1111
0.738281 0 0 0 0 -14.0351
0.742188 0 0 0 0 -13.9662
0.746094 0 0 0 0 -13.9051
0.75 0 0 0 0 -13.8523
0.753906 0 0 0 0 -13.8081
0.757813 0 0 0 0 -13.773
0.761719 0 0 0 0 -13.7476
0.765625 0 0 0 0 -13.7322
0.769531 0 0 0 0 -13.7274
0.773438 0 0 0 0 -13.7336
0.777344 0 0 0 0 -13.7511
0.78125 0 0 0 0 -13.7805
0.785156 0 0 0 0 -13.8222
0.789063 0 0 0 0 -13.8766
0.792969 0 0 0 0 -13.9442
0.796875 0 0 0 0 -14.0254
0.800781 0 0 0 0 -14.1207
0.804688 0 0 0 0 -14.2305
0.808594 0 0 0 0 -14.3554
0.8125 0 0 0 0 -14.496
0.816406 0 0 0 0 -14.6527
0.820313 0 0 0 0 -14.8263
0.824219 0 0 0 0 -15.0175
0.828125 0 0 0 0 -15.227
0.832031 0 0 0 0 -15.4558
0.835938 0 0 0 0 -15.7047
0.839844 0 0 0 0 -15.9748
0.84375 0 0 0 0 -16.2674
0.847656 0 0 0 0 -16.5838
0.851563 0 0 0 0 -16.9255
0.855469 0 0 0 0 -17.2941
0.859375 0 0 0 0 -17.6915
0.863281 0 0 0 0 -18.1198
0.867188 0 0 0 0 -18.5812
0.871094 0 0 0 0 -19.0782
0.875 0 0 0 0 -19.6136
0.878906 0 0 0 0 -20.1904
0.882813 0 0 0 0 -20.8119
0.886719 0 0 0 0 -21.4817
0.890625 0 0 0 0 -22.2037
0.894531 0 0 0 0 -22.9822
0.898438 0 0 0 0 -23.8217
0.902344 0 0 0 0 -24.7274
0.90625 0 0 0 0 -25.7045
0.910156 0 0 0 0 -26.7592
0.914063 0 0 0 0 -27.8977
0.917969 0 0 0 0 -29.1273
0.921875 0 0 0 0 -30.4557
0.925781 0 0 0 0 -31.892
0.929688 0 0 0 0 -33.4461
0.933594 0 0 0 0 -35.1296
0.9375 0 0 0 0 -36.9564
0.941406 0 0 0 0 -38.9429
0.945313 0 0 0 0 -41.1097
0.949219 0 0 0 0 -43.4824
0.953125 0 0 0 0 -46.0944
0.957031 0 0 0 0 -48.9894
0.960938 0 0 0 0 -52.2268
0.964844 0 0 0 0 -55.8884
0.96875 0 0 0 0 -60.09
0.972656 0 0 0 0 -65.0001
0.976563 0 0 0 0 -70.871
0.980469 0 0 0 0 -78.0967
0.984375 0 0 0 0 -87.3234
0.988281 0 0 0 0 -99.687
0.992188 0 0 0 0 -117.383
0.996094 0 0 0 0 -145.231
1 0 0 0 0 -195.771
0 0.00390625 0 0 0 0
0.00390625 0.00390625 0 0 0 0
0.0078125 0.00390625 0 0 0 -0.00029582
0.0117188 0.00390625 0 0 0 -0.000748122
0.015625 0.00390625 0 0 0 -0.00104613
0.0195313 0.00390625 0 0 0 -0.00103056
0.0234375 0.00390625 0 0 0 -0.000635233
0.0273438 0.00390625 0 0 0 0.000156072
0.03125 0.00390625 0 0 0 0.00133394
0.0351563 0.00390625 0 0 0 0.00287619
0.0390625 0.00390625 0 0 0 0.00475468
0.0429688 0.00390625 0 0 0 0.00693901
0.046875 0.00390625 0 0 0 0.00939854
0.0507813 0.00390625 0 0 0 0.0121036
0.0546875 0.00390625 0 0 0 0.015026
0.0585938 0.00390625 0 0 0 0.0181396
0.0625 0.00390625 0 0 0 0.02142
0.0664063 0.00390625 0 0 0 0.0248454
0.0703125 0.00390625 0 0 0 0.0283956
0.0742188 0.00390625 0 0 0 0.0320526
0.078125 0.00390625 0 0 0 0.0358004
0.0820313 0.00390625 0 0 0 0.0396245
0.0859375 0.00390625 0 0 0 0.0435123
0.0898438 0.00390625 0 0 0 0.0474526
0.09375 0.00390625 0 0 0 0.0514357
0.0976563 0.00390625 0 0 0 0.0554529
0.101563 0.00390625 0 0 0 0.059497
0.105469 0.00390625 0 0 0 0.0635615
0.109375 0.00390625 0 0 0 0.067641
0.113281 0.00390625 0 0 0 0.0717307
0.117188 0.00390625 0 0 0 0.0758267
0.121094 0.00390625 0 0 0 0.0799255
0.125 0.00390625 0 0 0 0.0840244
0.128906 0.00390625 0 0 0 0.0881208
0.132813 0.00390625 0 0 0 0.0922129
0.136719 0.00390625 0 0 0 0.0962988
0.140625 0.00390625 0 0 0 0.100377
0.144531 0.00390625 0 0 0 0.104447
0.148438 0.00390625 0 0 0 0.108507
0.152344 0.00390625 0 0 0 0.112557
0.15625 0.00390625 0 0 0 0.116595
0.160156 0.00390625 0 0 0 0.120622
0.164063 0.00390625 0 0 0 0.124636
0.167969 0.00390625 0 0 0 0.128638
0.171875 0.00390625 0 0 0 0.132626
0.175781 0.00390625 0 0 0 0.136601
0.179688 0.00390625 0 0 0 0.140562
0.183594 0.00390625 0 0 0 0.144509
0.1875 0.00390625 0 0 0 0.148441
0.191406 0.00390625 0 0 0 0.152359
0.195313 0.00390625 0 0 0 0.156261
0.199219 0.00390625 0 0 0 0.160148
0.203125 0.00390625 0 0 0 0.164019
0.207031 0.00390625 0 0 0 0.167874
0.210938 0.00390625 0 0 0 0.171713
0.214844 0.00390625 0 0 0 0.175534
0.21875 0.00390625 0 0 0 0.179339
0.222656 0.00390625 0 0 0 0.183125
0.226563 0.00390625 0 0 0 0.186894
0.230469 0.00390625 0 0 0 0.190645
0.234375 0.00390625 0 0 0 0.194377
0.238281 0.00390625 0 0 0 0.198089
0.242188 0.00390625 0 0 0 0.201782
0.246094 0.00390625 0 0 0 0.205455
0.25 0.00390625 0 0 0 0.209108
0.253906 0.00390625 0 0 0 0.212739
0.257813 0.00390625 0 0 0 0.216349
0.261719 0.00390625 0 0 0 0.219938
0.265625 0.00390625 0 0 0 0.223503
0.269531 0.00390625 0 0 0 0.227046
0.273438 0.00390625 0 0 0 0.230566
0.277344 0.00390625 0 0 0 0.234062
0.28125 0.00390625 0 0 0 0.237533
0.285156 0.00390625 0 0 0 0.240979
0.289063 0.00390625 0 0 0 0.2444
0.292969 0.00390625 0 0 0 0.247795
0.296875 0.00390625 0 0 0 0.251164
0.300781 0.00390625 0 0 0 0.254505
0.304688 0.00390625 0 0 0 0.257818
0.308594 0.00390625 0 0 0 0.261103
0.3125 0.00390625 0 0 0 0.26436
0.316406 0.00390625 0 0 0 0.267587
0.320313 0.00390625 0 0 0 0.270783
0.324219 0.00390625 0 0 0 0.27395
0.328125 0.00390625 0 0 0 0.277084
0.332031 0.00390625 0 0 0 0.280187
0.335938 0.00390625 0 0 0 0.283258
0.339844 0.00390625 0 0 0 0.286295
0.34375 0.00390625 0 0 0 0.289299
0.347656 0.00390625 0 0 0 0.292268
0.351563 0.00390625 0 0 0 0.295202
0.355469 0.00390625 0 0 0 0.2981
0.359375 0.00390625 0 0 0 0.300962
0.363281 0.00390625 0 0 0 0.303787
0.367188 0.00390625 0 0 0 0.306573
0.371094 0.00390625 0 0 0 0.309322
0.375 0.00390625 0 0 0 0.312031
0.378906 0.00390625 0 0 0 0.3147
0.382813 0.00390625 0 0 0 0.317329
0.386719 0.00390625 0 0 0 0.319916
0.390625 0.00390625 0 0 0 0.322461
0.394531 0.00390625 0 0 0 0.324964
0.398438 0.00390625 0 0 0 0.327423
0.402344 0.00390625 0 0 0 0.329837
0.40625 0.00390625 0 0 0 0.332207
0.410156 0.00390625 0 0 0 0.334531
0.414063 0.00390625 0 0 0 0.336808
0.417969 0.00390625 0 0 0 0.339039
0.421875 0.00390625 0 0 0 0.341221
0.425781 0.00390625 0 0 0 0.343354
0.429688 0.00390625 0 0 0 0.345438
0.433594 0.00390625 0 0 0 0.347472
0.4375 0.00390625 0 0 0 0.349454
0.441406 0.00390625 0 0 0 0.351385
0.445313 0.00390625 0 0 0 0.353263
0.449219 0.00390625 0 0 0 0.355087
0.453125 0.00390625 0 0 0 0.356857
0.457031 0.00390625 0 0 0 0.358572
0.460938 0.00390625 0 0 0 0.360232
0.464844 0.00390625 0 0 0 0.361835
0.46875 0.00390625 0 0 0 0.36338
0.472656 0.00390625 0 0 0 0.364867
0.476563 0.00390625 0 0 0 0.366296
0.480469 0.00390625 0 0 0 0.367664
0.484375 0.00390625 0 0 0 0.368973
0.488281 0.00390625 0 0 0 0.37022
0.492188 0.00390625 0 0 0 0.371404
0.496094 0.00390625 0 0 0 0.372527
0.5 0.00390625 0 0 0 0.373585
0.503906 0.00390625 0 0 0 0.374579
0.507813 0.00390625 0 0 0 0.375508
0.511719 0.00390625 0 0 0 0.376372
0.515625 0.00390625 0 0 0 0.377168
0.519531 0.00390625 0 0 0 0.377898
0.523438 0.00390625 0 0 0 0.378559
0.527344 0.00390625 0 0 0 0.379152
0.53125 0.00390625 0 0 0 0.379675
0.535156 0.00390625 0 0 0 0.380128
0.539063 0.00390625 0 0 0 0.38051
0.542969 0.00390625 0 0 0 0.380821
0.546875 0.00390625 0 0 0 0.38106
0.550781 0.00390625 0 0 0 0.381226
0.554688 0.00390625 0 0 0 0.381318
0.558594 0.00390625 0 0 0 0.381336
0.5625 0.00390625 0 0 0 0.38128
0.566406 0.00390625 0 0 0 0.381149
0.570313 0.00390625 0 0 0 0.380941
0.574219 0.00390625 0 0 0 0.380658
0.578125 0.00390625 0 0 0 0.380297
0.582031 0.00390625 0 0 0 0.379859
0.585938 0.00390625 0 0 0 0.379343
0.589844 0.00390625 0 0 0 0.378749
0.59375 0.00390625 0 0 0 0.378076
0.597656 0.00390625 0 0 0 0.377324
0.601563 0.00390625 0 0 0 0.376492
0.605469 0.00390625 0 0 0 0.37558
0.609375 0.00390625 0 0 0 0.374588
0.613281 0.00390625 0 0 0 0.373515
0.617188 0.00390625 0 0 0 0.372361
0.621094 0.00390625 0 0 0 0.371125
0.625 0.00390625 0 0 0 0.369808
0.628906 0.00390625 0 0 0 0.368409
0.632813 0.00390625 0 0 0 0.366928
0.636719 0.00390625 0 0 0 0.365365
0.640625 0.00390625 0 0 0 0.36372
0.644531 0.00390625 0 0 0 0.361992
0.648438 0.00390625 0 0 0 0.360182
0.652344 0.00390625 0 0 0 0.358289
0.65625 0.00390625 0 0 0 0.356313
0.660156 0.00390625 0 0 0 0.354255
0.664063 0.00390625 0 0 0 0.352114
0.667969 0.00390625 0 0 0 0.349891
0.671875 0.00390625 0 0 0 0.347585
0.675781 0.00390625 0 0 0 0.345198
0.679688 0.00390625 0 0 0 0.342728
0.683594 0.00390625 0 0 0 0.340176
0.6875 0.00390625 0 0 0 0.337543
0.691406 0.00390625 0 0 0 0.334828
0.695313 0.00390625 0 0 0 0.332033
0.699219 0.00390625 0 0 0 0.329156
0.703125 0.00390625 0 0 0 0.3262
0.707031 0.00390625 0 0 0 0.323163
0.710938 0.00390625 0 0 0 0.320048
0.714844 0.00390625 0 0 0 0.316853
0.71875 0.00390625 0 0 0 0.31358
0.722656 0.00390625 0 0 0 0.310228
0.726563 0.00390625 0 0 0 0.3068
0.730469 0.00390625 0 0 0 0.303295
0.734375 0.00390625 0 0 0 0.299714
0.738281 0.00390625 0 0 0 0.296058
0.742188 0.00390625 0 0 0 0.292327
0.746094 0.00390625 0 0 0 0.288522
0.75 0.00390625 0 0 0 0.284644
0.753906 0.00390625 0 0 0 0.280693
0.757813 0.00390625 0 0 0 0.276672
0.761719 0.00390625 0 0 0 0.27258
0.765625 0.00390625 0 0 0 0.268418
0.769531 0.00390625 0 0 0 0.264187
0.773438 0.00390625 0 0 0 0.259889
0.777344 0.00390625 0 0 0 0.255523
0.78125 0.00390625 0 0 0 0.251092
0.785156 0.00390625 0 0 0 0.246597
0.789063 0.00390625 0 0 0 0.242037
0.792969 0.00390625 0 0 0 0.237415
0.796875 0.00390625 0 0 0 0.232732
0.800781 0.00390625 0 0 0 0.227988
0.804688 0.00390625 0 0 0 0.223185
0.808594 0.00390625 0 0 0 0.218324
0.8125 0.00390625 0 0 0 0.213407
0.816406 0.00390625 0 0 0 0.208434
0.820313 0.00390625 0 0 0 0.203407
0.824219 0.00390625 0 0 0 0.198327
0.828125 0.00390625 0 0 0 0.193195
0.832031 0.00390625 0 0 0 0.188014
0.835938 0.00390625 0 0 0 0.182784
0.839844 0.00390625 0 0 0 0.177507
0.84375 0.00390625 0 0 0 0.172185
0.847656 0.00390625 0 0 0 0.16682
0.851563 0.00390625 0 0 0 0.161413
0.855469 0.00390625 0 0 0 0.155966
0.859375 0.00390625 0 0 0 0.150482
0.863281 0.00390625 0 0 0 0.144963
0.867188 0.00390625 0 0 0 0.139411
0.871094 0.00390625 0 0 0 0.13383
0.875 0.00390625 0 0 0 0.128222
0.878906 0.00390625 0 0 0 0.122591
0.882813 0.00390625 0 0 0 0.116942
0.886719 0.00390625 0 0 0 0.111277
0.890625 0.00390625 0 0 0 0.105603
0.894531 0.00390625 0 0 0 0.0999246
0.898438 0.00390625 0 0 0 0.0942483
0.902344 0.00390625 0 0 0 0.0885811
0.90625 0.00390625 0 0 0 0.0829309
0.910156 0.00390625 0 0 0 0.0773068
0.914063 0.00390625 0 0 0 0.0717188
0.917969 0.00390625 0 0 0 0.0661782
0.921875 0.00390625 0 0 0 0.0606979
0.925781 0.00390625 0 0 0 0.0552923
0.929688 0.00390625 0 0 0 0.0499773
0.933594 0.00390625 0 0 0 0.0447708
0.9375 0.00390625 0 0 0 0.039693
0.941406 0.00390625 0 0 0 0.0347658
0.945313 0.00390625 0 0 0 0.0300139
0.949219 0.00390625 0 0 0 0.0254642
0.953125 0.00390625 0 0 0 0.0211465
0.957031 0.00390625 0 0 0 0.017093
0.960938 0.00390625 0 0 0 0.0133387
0.964844 0.00390625 0 0 0 0.00992116
0.96875 0.00390625 0 0 0 0.00688012
0.972656 0.00390625 0 0 0 0.00425669
0.976563 0.00390625 0 0 0 0.00209206
0.980469 0.00390625 0 0 0 0.000424907
0.984375 0.00390625 0 0 0 -0.000713394
0.988281 0.00390625 0 0 0 -0.00130774
0.992188 0.00390625 0 0 0 -0.00137657
0.996094 0.00390625 0 0 0 -0.00100504
1 0.00390625 0 0 0 -0.000405074
0 0.0078125 0 0 -0.000405074 0
0.00390625 0.0078125 0 0 0 -0.00029582
0.0078125 0.0078125 7.30794e-07 -7.30588e-07 2.2569e-09 -0.000156605
0.0117188 0.0078125 1.64742e-06 -7.32731e-07 5.70774e-09 -1.82274e-05
0.015625 0.0078125 1.95331e-06 -2.75814e-07 7.98153e-09 0.000202834
0.0195313 0.0078125 1.20416e-06 4.01291e-07 7.86296e-09 0.000603937
0.0234375 0.0078125 -8.13958e-07 1.15887e-06 4.84716e-09 0.00125003
0.0273438 0.0078125 -4.17408e-06 1.92311e-06 -1.18968e-09 0.00217444
0.03125 0.0078125 -8.8663e-06 2.6565e-06 -1.01758e-08 0.00338793
0.0351563 0.0078125 -1.48334e-05 3.34075e-06 -2.19418e-08 0.00488683
0.0390625 0.0078125 -2.19926e-05 3.96782e-06 -3.62732e-08 0.00665866
0.0429688 0.0078125 -3.02483e-05 4.53529e-06 -5.2938e-08 0.00868597
0.046875 0.0078125 -3.95004e-05 5.04385e-06 -7.17025e-08 0.0109487
0.0507813 0.0078125 -4.9649e-05 5.49592e-06 -9.23401e-08 0.0134257
0.0546875 0.0078125 -6.05976e-05 5.89488e-06 -1.14636e-07 0.0160958
0.0585938 0.0078125 -7.22545e-05 6.24459e-06 -1.3839e-07 0.0189386
0.0625 0.0078125 -8.45344e-05 6.54911e-06 -1.63418e-07 0.0219343
0.0664063 0.0078125 -9.73583e-05 6.81251e-06 -1.89552e-07 0.0250648
0.0703125 0.0078125 -0.000110654 7.03876e-06 -2.16638e-07 0.028313
0.0742188 0.0078125 -0.000124356 7.23168e-06 -2.44539e-07 0.0316633
0.078125 0.0078125 -0.000138405 7.39485e-06 -2.73132e-07 0.0351015
0.0820313 0.0078125 -0.000152748 7.53163e-06 -3.02307e-07 0.0386148
0.0859375 0.0078125 -0.000167339 7.6451e-06 -3.31969e-07 0.0421917
0.0898438 0.0078125 -0.000182135 7.7381e-06 -3.62032e-07 0.045822
0.09375 0.0078125 -0.000197099 7.81322e-06 -3.9242e-07 0.0494966
0.0976563 0.0078125 -0.0002122 7.87278e-06 -4.2307e-07 0.0532073
0.101563 0.0078125 -0.00022741 7.91889e-06 -4.53924e-07 0.0569472
0.105469 0.0078125 -0.000242703 7.9534e-06 -4.84934e-07 0.0607101
0.109375 0.0078125 -0.000258059 7.97797e-06 -5.16058e-07 0.0644905
0.113281 0.0078125 -0.000273459 7.99405e-06 -5.4726e-07 0.0682839
0.117188 0.0078125 -0.000288889 8.00292e-06 -5.7851e-07 0.0720861
0.121094 0.0078125 -0.000304334 8.0057e-06 -6.09782e-07 0.0758938
0.125 0.0078125 -0.000319784 8.00333e-06 -6.41055e-07 0.079704
0.128906 0.0078125 -0.000335229 7.99665e-06 -6.72309e-07 0.0835141
0.132813 0.0078125 -0.00035066 7.98634e-06 -7.03529e-07 0.087322
0.136719 0.0078125 -0.000366071 7.97301e-06 -7.34703e-07 0.0911259
0.140625 0.0078125 -0.000381456 7.95716e-06 -7.65819e-07 0.0949241
0.144531 0.0078125 -0.000396811 7.93919e-06 -7.9687e-07 0.0987154
0.148438 0.0078125 -0.000412131 7.91945e-06 -8.27847e-07 0.102499
0.152344 0.0078125 -0.000427413 7.89823e-06 -8.58743e-07 0.106273
0.15625 0.0078125 -0.000442653 7.87573e-06 -8.89555e-07 0.110037
0.160156 0.0078125 -0.00045785 7.85215e-06 -9.20276e-07 0.113791
0.164063 0.0078125 -0.000473 7.82763e-06 -9.50904e-07 0.117533
0.167969 0.0078125 -0.000488103 7.80226e-06 -9.81434e-07 0.121264
0.171875 0.0078125 -0.000503156 7.77614e-06 -1.01186e-06 0.124983
0.175781 0.0078125 -0.000518158 7.74932e-06 -1.04219e-06 0.128689
0.179688 0.0078125 -0.000533107 7.72185e-06 -1.07241e-06 0.132381
0.183594 0.0078125 -0.000548002 7.69373e-06 -1.10252e-06 0.13606
0.1875 0.0078125 -0.000562842 7.665e-06 -1.13253e-06 0.139726
0.191406 0.0078125 -0.000577625 7.63565e-06 -1.16241e-06 0.143377
0.195313 0.0078125 -0.000592349 7.60568e-06 -1.19219e-06 0.147014
0.199219 0.0078125 -0.000607015 7.57507e-06 -1.22184e-06 0.150635
0.203125 0.0078125 -0.000621619 7.54382e-06 -1.25138e-06 0.154242
0.207031 0.0078125 -0.000636162 7.51192e-06 -1.28079e-06 0.157832
0.210938 0.0078125 -0.000650642 7.47933e-06 -1.31007e-06 0.161407
0.214844 0.0078125 -0.000665056 7.44604e-06 -1.33923e-06 0.164966
0.21875 0.0078125 -0.000679405 7.41203e-06 -1.36826e-06 0.168507
0.222656 0.0078125 -0.000693686 7.37728e-06 -1.39715e-06 0.172032
0.226563 0.0078125 -0.000707897 7.34177e-06 -1.4259e-06 0.175539
0.230469 0.0078125 -0.000722039 7.30547e-06 -1.45452e-06 0.179029
0.234375 0.0078125 -0.000736108 7.26837e-06 -1.48299e-06 0.1825
0.238281 0.0078125 -0.000750103 7.23043e-06 -1.51131e-06 0.185953
0.242188 0.0078125 -0.000764023 7.19166e-06 -1.53949e-06 0.189387
0.246094 0.0078125 -0.000777865 7.15201e-06 -1.56751e-06 0.192801
0.25 0.0078125 -0.000791629 7.11148e-06 -1.59538e-06 0.196195
0.253906 0.0078125 -0.000805313 7.07004e-06 -1.62309e-06 0.199569
0.257813 0.0078125 -0.000818914 7.02768e-06 -1.65063e-06 0.202923
0.261719 0.0078125 -0.000832431 6.98438e-06 -1.67801e-06 0.206255
0.265625 0.0078125 -0.000845862 6.94012e-06 -1.70521e-06 0.209565
0.269531 0.0078125 -0.000859205 6.89489e-06 -1.73224e-06 0.212854
0.273438 0.0078125 -0.000872458 6.84866e-06 -1.7591e-06 0.21612
0.277344 0.0078125 -0.00088562 6.80143e-06 -1.78577e-06 0.219363
0.28125 0.0078125 -0.000898688 6.75317e-06 -1.81225e-06 0.222582
0.285156 0.0078125 -0.000911661 6.70387e-06 -1.83855e-06 0.225777
0.289063 0.0078125 -0.000924536 6.65351e-06 -1.86465e-06 0.228948
0.292969 0.0078125 -0.000937311 6.60208e-06 -1.89055e-06 0.232094
0.296875 0.0078125 -0.000949985 6.54957e-06 -1.91625e-06 0.235214
0.300781 0.0078125 -0.000962554 6.49595e-06 -1.94174e-06 0.238308
0.304688 0.0078125 -0.000975018 6.44121e-06 -1.96702e-06 0.241376
0.308594 0.0078125 -0.000987373 6.38534e-06 -1.99208e-06 0.244416
0.3125 0.0078125 -0.000999618 6.32833e-06 -2.01693e-06 0.247429
0.316406 0.0078125 -0.00101175 6.27015e-06 -2.04155e-06 0.250413
0.320313 0.0078125 -0.00102377 6.21079e-06 -2.06594e-06 0.253369
0.324219 0.0078125 -0.00103567 6.15024e-06 -2.09009e-06 0.256296
0.328125 0.0078125 -0.00104745 6.08849e-06 -2.11401e-06 0.259193
0.332031 0.0078125 -0.00105911 6.02551e-06 -2.13769e-06 0.262059
0.335938 0.0078125 -0.00107065 5.9613e-06 -2.16111e-06 0.264895
0.339844 0.0078125 -0.00108205 5.89585e-06 -2.18429e-06 0.267698
0.34375 0.0078125 -0.00109334 5.82912e-06 -2.2072e-06 0.27047
0.347656 0.0078125 -0.00110448 5.76112e-06 -2.22986e-06 0.273209
0.351563 0.0078125 -0.0011155 5.69183e-06 -2.25224e-06 0.275914
0.355469 0.0078125 -0.00112638 5.62124e-06 -2.27435e-06 0.278586
0.359375 0.0078125 -0.00113712 5.54933e-06 -2.29619e-06 0.281223
0.363281 0.0078125 -0.00114772 5.47608e-06 -2.31774e-06 0.283825
0.367188 0.0078125 -0.00115817 5.4015e-06 -2.339e-06 0.286391
0.371094 0.0078125 -0.00116848 5.32555e-06 -2.35997e-06 0.288921
0.375 0.0078125 -0.00117864 5.24824e-06 -2.38064e-06 0.291413
0.378906 0.0078125 -0.00118865 5.16955e-06 -2.401e-06 0.293868
0.382813 0.0078125 -0.00119851 5.08946e-06 -2.42106e-06 0.296285
0.386719 0.0078125 -0.00120821 5.00796e-06 -2.4408e-06 0.298662
0.390625 0.0078125 -0.00121774 4.92506e-06 -2.46022e-06 0.301
0.394531 0.0078125 -0.00122712 4.84072e-06 -2.47931e-06 0.303298
0.398438 0.0078125 -0.00123633 4.75494e-06 -2.49807e-06 0.305555
0.402344 0.0078125 -0.00124537 4.66772e-06 -2.5165e-06 0.30777
0.40625 0.0078125 -0.00125425 4.57904e-06 -2.53458e-06 0.309943
0.410156 0.0078125 -0.00126295 4.48889e-06 -2.55231e-06 0.312072
0.414063 0.0078125 -0.00127147 4.39727e-06 -2.56968e-06 0.314159
0.417969 0.0078125 -0.00127982 4.30416e-06 -2.5867e-06 0.316201
0.421875 0.0078125 -0.00128798 4.20957e-06 -2.60335e-06 0.318198
0.425781 0.0078125 -0.00129596 4.11347e-06 -2.61962e-06 0.320149
0.429688 0.0078125 -0.00130375 4.01587e-06 -2.63552e-06 0.322054
0.433594 0.0078125 -0.00131135 3.91676e-06 -2.65104e-06 0.323912
0.4375 0.0078125 -0.00131876 3.81613e-06 -2.66616e-06 0.325722
0.441406 0.0078125 -0.00132597 3.71398e-06 -2.68089e-06 0.327483
0.445313 0.0078125 -0.00133298 3.6103e-06 -2.69522e-06 0.329196
0.449219 0.0078125 -0.0013398 3.5051e-06 -2.70914e-06 0.330859
0.453125 0.0078125 -0.0013464 3.39837e-06 -2.72265e-06 0.332471
0.457031 0.0078125 -0.0013528 3.29011e-06 -2.73573e-06 0.334032
0.460938 0.0078125 -0.00135899 3.18031e-06 -2.74839e-06 0.33554
0.464844 0.0078125 -0.00136497 3.06899e-06 -2.76062e-06 0.336997
0.46875 0.0078125 -0.00137073 2.95613e-06 -2.77241e-06 0.3384
0.472656 0.0078125 -0.00137627 2.84175e-06 -2.78376e-06 0.339749
0.476563 0.0078125 -0.00138158 2.72584e-06 -2.79466e-06 0.341043
0.480469 0.0078125 -0.00138668 2.60841e-06 -2.8051e-06 0.342282
0.484375 0.0078125 -0.00139154 2.48946e-06 -2.81508e-06 0.343464
0.488281 0.0078125 -0.00139618 2.36901e-06 -2.8246e-06 0.34459
0.492188 0.0078125 -0.00140058 2.24705e-06 -2.83364e-06 0.345658
0.496094 0.0078125 -0.00140475 2.1236e-06 -2.8422e-06 0.346668
0.5 0.0078125 -0.00140867 1.99866e-06 -2.85027e-06 0.34762
0.503906 0.0078125 -0.00141236 1.87225e-06 -2.85786e-06 0.348511
0.507813 0.0078125 -0.0014158 1.74438e-06 -2.86495e-06 0.349343
0.511719 0.0078125 -0.00141899 1.61506e-06 -2.87153e-06 0.350114
0.515625 0.0078125 -0.00142193 1.4843e-06 -2.87761e-06 0.350823
0.519531 0.0078125 -0.00142462 1.35213e-06 -2.88318e-06 0.35147
0.523438 0.0078125 -0.00142705 1.21855e-06 -2.88823e-06 0.352054
0.527344 0.0078125 -0.00142923 1.08359e-06 -2.89275e-06 0.352575
0.53125 0.0078125 -0.00143114 9.47269e-07 -2.89674e-06 0.353032
0.535156 0.0078125 -0.00143279 8.09602e-07 -2.9002e-06 0.353424
0.539063 0.0078125 -0.00143418 6.70615e-07 -2.90311e-06 0.353751
0.542969 0.0078125 -0.0014353 5.3033e-07 -2.90548e-06 0.354012
0.546875 0.0078125 -0.00143614 3.88772e-07 -2.9073e-06 0.354206
0.550781 0.0078125 -0.00143672 2.45969e-07 -2.90857e-06 0.354334
0.554688 0.0078125 -0.00143701 1.01949e-07 -2.90927e-06 0.354394
0.558594 0.0078125 -0.00143704 -4.32603e-08 -2.90942e-06 0.354385
0.5625 0.0078125 -0.00143678 -1.89627e-07 -2.90899e-06 0.354309
0.566406 0.0078125 -0.00143623 -3.37119e-07 -2.90798e-06 0.354162
0.570313 0.0078125 -0.00143541 -4.85703e-07 -2.9064e-06 0.353947
0.574219 0.0078125 -0.0014343 -6.35344e-07 -2.90424e-06 0.353661
0.578125 0.0078125 -0.0014329 -7.86005e-07 -2.90149e-06 0.353304
0.582031 0.0078125 -0.00143121 -9.37648e-07 -2.89814e-06 0.352877
0.585938 0.0078125 -0.00142923 -1.09023e-06 -2.89421e-06 0.352378
0.589844 0.0078125 -0.00142695 -1.24372e-06 -2.88968e-06 0.351807
0.59375 0.0078125 -0.00142438 -1.39807e-06 -2.88454e-06 0.351164
0.597656 0.0078125 -0.00142151 -1.55323e-06 -2.8788e-06 0.350447
0.601563 0.0078125 -0.00141835 -1.70916e-06 -2.87245e-06 0.349658
0.605469 0.0078125 -0.00141488 -1.86582e-06 -2.8655e-06 0.348796
0.609375 0.0078125 -0.00141111 -2.02316e-06 -2.85793e-06 0.34786
0.613281 0.0078125 -0.00140705 -2.18112e-06 -2.84974e-06 0.34685
0.617188 0.0078125 -0.00140267 -2.33965e-06 -2.84093e-06 0.345765
0.621094 0.0078125 -0.001398 -2.49872e-06 -2.83151e-06 0.344606
0.625 0.0078125 -0.00139302 -2.65825e-06 -2.82146e-06 0.343372
0.628906 0.0078125 -0.00138773 -2.81821e-06 -2.81078e-06 0.342064
0.632813 0.0078125 -0.00138213 -2.97852e-06 -2.79949e-06 0.34068
0.636719 0.0078125 -0.00137623 -3.13914e-06 -2.78756e-06 0.339221
0.640625 0.0078125 -0.00137002 -3.30001e-06 -2.77501e-06 0.337686
0.644531 0.0078125 -0.0013635 -3.46107e-06 -2.76182e-06 0.336076
0.648438 0.0078125 -0.00135667 -3.62226e-06 -2.74801e-06 0.334391
0.652344 0.0078125 -0.00134954 -3.78352e-06 -2.73357e-06 0.33263
0.65625 0.0078125 -0.00134209 -3.94479e-06 -2.7185e-06 0.330793
0.660156 0.0078125 -0.00133433 -4.106e-06 -2.70279e-06 0.328881
0.664063 0.0078125 -0.00132627 -4.26709e-06 -2.68646e-06 0.326893
0.667969 0.0078125 -0.0013179 -4.428e-06 -2.6695e-06 0.324829
0.671875 0.0078125 -0.00130922 -4.58867e-06 -2.65191e-06 0.32269
0.675781 0.0078125 -0.00130023 -4.74903e-06 -2.63369e-06 0.320476
0.679688 0.0078125 -0.00129093 -4.90901e-06 -2.61485e-06 0.318187
0.683594 0.0078125 -0.00128133 -5.06854e-06 -2.59538e-06 0.315823
0.6875 0.0078125 -0.00127143 -5.22757e-06 -2.57529e-06 0.313384
0.691406 0.0078125 -0.00126122 -5.38602e-06 -2.55458e-06 0.310871
0.695313 0.0078125 -0.0012507 -5.54383e-06 -2.53325e-06 0.308284
0.699219 0.0078125 -0.00123989 -5.70093e-06 -2.5113e-06 0.305623
0.703125 0.0078125 -0.00122877 -5.85725e-06 -2.48874e-06 0.302888
0.707031 0.0078125 -0.00121735 -6.01272e-06 -2.46558e-06 0.30008
0.710938 0.0078125 -0.00120564 -6.16729e-06 -2.4418e-06 0.2972
0.714844 0.0078125 -0.00119363 -6.32087e-06 -2.41743e-06 0.294247
0.71875 0.0078125 -0.00118133 -6.47341e-06 -2.39246e-06 0.291222
0.722656 0.0078125 -0.00116874 -6.62484e-06 -2.36689e-06 0.288126
0.726563 0.0078125 -0.00115586 -6.77509e-06 -2.34073e-06 0.284959
0.730469 0.0078125 -0.00114269 -6.9241e-06 -2.31399e-06 0.281722
0.734375 0.0078125 -0.00112924 -7.07181e-06 -2.28667e-06 0.278415
0.738281 0.0078125 -0.0011155 -7.21814e-06 -2.25877e-06 0.275039
0.742188 0.0078125 -0.00110148 -7.36304e-06 -2.2303e-06 0.271595
0.746094 0.0078125 -0.00108719 -7.50645e-06 -2.20127e-06 0.268083
0.75 0.0078125 -0.00107263 -7.6483e-06 -2.17169e-06 0.264504
0.753906 0.0078125 -0.00105779 -7.78853e-06 -2.14155e-06 0.260859
0.757813 0.0078125 -0.00104269 -7.92709e-06 -2.11086e-06 0.257148
0.761719 0.0078125 -0.00102732 -8.06392e-06 -2.07964e-06 0.253372
0.765625 0.0078125 -0.00101169 -8.19896e-06 -2.04789e-06 0.249533
0.769531 0.0078125 -0.000995804 -8.33215e-06 -2.01561e-06 0.24563
0.773438 0.0078125 -0.000979664 -8.46345e-06 -1.98281e-06 0.241665
0.777344 0.0078125 -0.000963273 -8.5928e-06 -1.94951e-06 0.237639
0.78125 0.0078125 -0.000946635 -8.72014e-06 -1.9157e-06 0.233552
0.785156 0.0078125 -0.000929755 -8.84543e-06 -1.8814e-06 0.229405
0.789063 0.0078125 -0.000912636 -8.96861e-06 -1.84662e-06 0.225201
0.792969 0.0078125 -0.000895283 -9.08964e-06 -1.81135e-06 0.220938
0.796875 0.0078125 -0.000877699 -9.20845e-06 -1.77562e-06 0.216619
0.800781 0.0078125 -0.000859889 -9.325e-06 -1.73943e-06 0.212245
0.804688 0.0078125 -0.000841857 -9.43924e-06 -1.70278e-06 0.207816
0.808594 0.0078125 -0.000823608 -9.5511e-06 -1.6657e-06 0.203334
0.8125 0.0078125 -0.000805146 -9.66052e-06 -1.62818e-06 0.1988
0.816406 0.0078125 -0.000786476 -9.76743e-06 -1.59023e-06 0.194215
0.820313 0.0078125 -0.000767603 -9.87176e-06 -1.55188e-06 0.18958
0.824219 0.0078125 -0.000748532 -9.97343e-06 -1.51312e-06 0.184896
0.828125 0.0078125 -0.000729269 -1.00723e-05 -1.47397e-06 0.180166
0.832031 0.0078125 -0.000709819 -1.01684e-05 -1.43444e-06 0.175389
0.835938 0.0078125 -0.000690187 -1.02614e-05 -1.39454e-06 0.170568
0.839844 0.0078125 -0.00067038 -1.03512e-05 -1.35428e-06 0.165705
0.84375 0.0078125 -0.000650404 -1.04378e-05 -1.31367e-06 0.1608
0.847656 0.0078125 -0.000630265 -1.05207e-05 -1.27274e-06 0.155856
0.851563 0.0078125 -0.000609971 -1.05999e-05 -1.23148e-06 0.150873