Title=" Lid Driven Flow"
VARIABLES="X","Y","U","V","psi","xi"
ZONE T= "BOX", I= 201, J=201, F=POINT
0 0 0 0 0.0031955 0
0.005 0 0 0 0 0
0.01 0 0 0 0 0
0.015 0 0 0 0 161.891
0.02 0 0 0 0 176.122
0.025 0 0 0 0 155.601
0.03 0 0 0 0 133.209
0.035 0 0 0 0 115.688
0.04 0 0 0 0 102.832
0.045 0 0 0 0 93.2985
0.05 0 0 0 0 85.976
0.055 0 0 0 0 80.1319
0.06 0 0 0 0 75.3076
0.065 0 0 0 0 71.2142
0.07 0 0 0 0 67.6642
0.075 0 0 0 0 64.5309
0.08 0 0 0 0 61.7262
0.085 0 0 0 0 59.1864
0.09 0 0 0 0 56.8649
0.095 0 0 0 0 54.7265
0.1 0 0 0 0 52.7442
0.105 0 0 0 0 50.8972
0.11 0 0 0 0 49.1686
0.115 0 0 0 0 47.5453
0.12 0 0 0 0 46.0162
0.125 0 0 0 0 44.5724
0.13 0 0 0 0 43.2062
0.135 0 0 0 0 41.9112
0.14 0 0 0 0 40.6817
0.145 0 0 0 0 39.5129
0.15 0 0 0 0 38.4004
0.155 0 0 0 0 37.3403
0.16 0 0 0 0 36.3291
0.165 0 0 0 0 35.3636
0.17 0 0 0 0 34.4407
0.175 0 0 0 0 33.5579
0.18 0 0 0 0 32.7125
0.185 0 0 0 0 31.9023
0.19 0 0 0 0 31.1248
0.195 0 0 0 0 30.3781
0.2 0 0 0 0 29.6603
0.205 0 0 0 0 28.9694
0.21 0 0 0 0 28.3037
0.215 0 0 0 0 27.6615
0.22 0 0 0 0 27.0414
0.225 0 0 0 0 26.4417
0.23 0 0 0 0 25.8612
0.235 0 0 0 0 25.2985
0.24 0 0 0 0 24.7524
0.245 0 0 0 0 24.2217
0.25 0 0 0 0 23.7053
0.255 0 0 0 0 23.2021
0.26 0 0 0 0 22.7111
0.265 0 0 0 0 22.2316
0.27 0 0 0 0 21.7625
0.275 0 0 0 0 21.303
0.28 0 0 0 0 20.8525
0.285 0 0 0 0 20.4101
0.29 0 0 0 0 19.9753
0.295 0 0 0 0 19.5475
0.3 0 0 0 0 19.1259
0.305 0 0 0 0 18.7102
0.31 0 0 0 0 18.2999
0.315 0 0 0 0 17.8944
0.32 0 0 0 0 17.4935
0.325 0 0 0 0 17.0967
0.33 0 0 0 0 16.7037
0.335 0 0 0 0 16.3142
0.34 0 0 0 0 15.9279
0.345 0 0 0 0 15.5447
0.35 0 0 0 0 15.1643
0.355 0 0 0 0 14.7866
0.36 0 0 0 0 14.4114
0.365 0 0 0 0 14.0386
0.37 0 0 0 0 13.6681
0.375 0 0 0 0 13.3
0.38 0 0 0 0 12.9341
0.385 0 0 0 0 12.5704
0.39 0 0 0 0 12.2091
0.395 0 0 0 0 11.85
0.4 0 0 0 0 11.4933
0.405 0 0 0 0 11.1391
0.41 0 0 0 0 10.7874
0.415 0 0 0 0 10.4384
0.42 0 0 0 0 10.0922
0.425 0 0 0 0 9.749
0.43 0 0 0 0 9.40888
0.435 0 0 0 0 9.07204
0.44 0 0 0 0 8.73868
0.445 0 0 0 0 8.40898
0.45 0 0 0 0 8.08314
0.455 0 0 0 0 7.76137
0.46 0 0 0 0 7.44387
0.465 0 0 0 0 7.13087
0.47 0 0 0 0 6.82257
0.475 0 0 0 0 6.51918
0.48 0 0 0 0 6.22093
0.485 0 0 0 0 5.92802
0.49 0 0 0 0 5.64065
0.495 0 0 0 0 5.35903
0.5 0 0 0 0 5.08334
0.505 0 0 0 0 4.81376
0.51 0 0 0 0 4.55048
0.515 0 0 0 0 4.29365
0.52 0 0 0 0 4.04341
0.525 0 0 0 0 3.79991
0.53 0 0 0 0 3.56326
0.535 0 0 0 0 3.33358
0.54 0 0 0 0 3.11095
0.545 0 0 0 0 2.89544
0.55 0 0 0 0 2.68712
0.555 0 0 0 0 2.48603
0.56 0 0 0 0 2.29219
0.565 0 0 0 0 2.10561
0.57 0 0 0 0 1.92628
0.575 0 0 0 0 1.75418
0.58 0 0 0 0 1.58926
0.585 0 0 0 0 1.43146
0.59 0 0 0 0 1.28072
0.595 0 0 0 0 1.13695
0.6 0 0 0 0 1.00004
0.605 0 0 0 0 0.869879
0.61 0 0 0 0 0.746348
0.615 0 0 0 0 0.629306
0.62 0 0 0 0 0.518607
0.625 0 0 0 0 0.414094
0.63 0 0 0 0 0.315604
0.635 0 0 0 0 0.222964
0.64 0 0 0 0 0.135998
0.645 0 0 0 0 0.0545232
0.65 0 0 0 0 -0.021648
0.655 0 0 0 0 -0.0927055
0.66 0 0 0 0 -0.158842
0.665 0 0 0 0 -0.220252
0.67 0 0 0 0 -0.277132
0.675 0 0 0 0 -0.329677
0.68 0 0 0 0 -0.378084
0.685 0 0 0 0 -0.422549
0.69 0 0 0 0 -0.463268
0.695 0 0 0 0 -0.500434
0.7 0 0 0 0 -0.534241
0.705 0 0 0 0 -0.564879
0.71 0 0 0 0 -0.592539
0.715 0 0 0 0 -0.617407
0.72 0 0 0 0 -0.639667
0.725 0 0 0 0 -0.659501
0.73 0 0 0 0 -0.677086
0.735 0 0 0 0 -0.692595
0.74 0 0 0 0 -0.706193
0.745 0 0 0 0 -0.718042
0.75 0 0 0 0 -0.728294
0.755 0 0 0 0 -0.737092
0.76 0 0 0 0 -0.744571
0.765 0 0 0 0 -0.750853
0.77 0 0 0 0 -0.756047
0.775 0 0 0 0 -0.760249
0.78 0 0 0 0 -0.763541
0.785 0 0 0 0 -0.765988
0.79 0 0 0 0 -0.767639
0.795 0 0 0 0 -0.768526
0.8 0 0 0 0 -0.768666
0.805 0 0 0 0 -0.768056
0.81 0 0 0 0 -0.76668
0.815 0 0 0 0 -0.764503
0.82 0 0 0 0 -0.76148
0.825 0 0 0 0 -0.757549
0.83 0 0 0 0 -0.752637
0.835 0 0 0 0 -0.746665
0.84 0 0 0 0 -0.739542
0.845 0 0 0 0 -0.731177
0.85 0 0 0 0 -0.721473
0.855 0 0 0 0 -0.710336
0.86 0 0 0 0 -0.697676
0.865 0 0 0 0 -0.683408
0.87 0 0 0 0 -0.667458
0.875 0 0 0 0 -0.649764
0.88 0 0 0 0 -0.630281
0.885 0 0 0 0 -0.608983
0.89 0 0 0 0 -0.585863
0.895 0 0 0 0 -0.560942
0.9 0 0 0 0 -0.534265
0.905 0 0 0 0 -0.505906
0.91 0 0 0 0 -0.475972
0.915 0 0 0 0 -0.444601
0.92 0 0 0 0 -0.411963
0.925 0 0 0 0 -0.378267
0.93 0 0 0 0 -0.343755
0.935 0 0 0 0 -0.308706
0.94 0 0 0 0 -0.273436
0.945 0 0 0 0 -0.238296
0.95 0 0 0 0 -0.203677
0.955 0 0 0 0 -0.170004
0.96 0 0 0 0 -0.137741
0.965 0 0 0 0 -0.107386
0.97 0 0 0 0 -0.0794738
0.975 0 0 0 0 -0.0545715
0.98 0 0 0 0 -0.0332702
0.985 0 0 0 0 -0.016167
0.99 0 0 0 0 -0.00381867
0.995 0 0 0 0 0.00336574
1 0 0 0 0 0.00537889
0 0.005 0 0 0 0
0.005 0.005 0 0 0 0
0.01 0.005 0 0 0 73.7281
0.015 0.005 0 0 0 62.0681
0.02 0.005 0 0 0 45.7201
0.025 0.005 0 0 0 33.9535
0.03 0.005 0 0 0 26.056
0.035 0.005 0 0 0 20.6268
0.04 0.005 0 0 0 16.7244
0.045 0.005 0 0 0 13.7974
0.05 0.005 0 0 0 11.5263
0.055 0.005 0 0 0 9.71962
0.06 0.005 0 0 0 8.25697
0.065 0.005 0 0 0 7.05829
0.07 0.005 0 0 0 6.06773
0.075 0.005 0 0 0 5.24455
0.08 0.005 0 0 0 4.55793
0.085 0.005 0 0 0 3.98391
0.09 0.005 0 0 0 3.50345
0.095 0.005 0 0 0 3.10117
0.1 0.005 0 0 0 2.76452
0.105 0.005 0 0 0 2.48316
0.11 0.005 0 0 0 2.2485
0.115 0.005 0 0 0 2.05342
0.12 0.005 0 0 0 1.89198
0.125 0.005 0 0 0 1.75921
0.13 0.005 0 0 0 1.65094
0.135 0.005 0 0 0 1.56368
0.14 0.005 0 0 0 1.49451
0.145 0.005 0 0 0 1.44099
0.15 0.005 0 0 0 1.40105
0.155 0.005 0 0 0 1.37296
0.16 0.005 0 0 0 1.35529
0.165 0.005 0 0 0 1.34681
0.17 0.005 0 0 0 1.34651
0.175 0.005 0 0 0 1.35353
0.18 0.005 0 0 0 1.36715
0.185 0.005 0 0 0 1.38676
0.19 0.005 0 0 0 1.41185
0.195 0.005 0 0 0 1.442
0.2 0.005 0 0 0 1.47684
0.205 0.005 0 0 0 1.51606
0.21 0.005 0 0 0 1.55939
0.215 0.005 0 0 0 1.60661
0.22 0.005 0 0 0 1.65751
0.225 0.005 0 0 0 1.71192
0.23 0.005 0 0 0 1.76968
0.235 0.005 0 0 0 1.83065
0.24 0.005 0 0 0 1.89471
0.245 0.005 0 0 0 1.96173
0.25 0.005 0 0 0 2.0316
0.255 0.005 0 0 0 2.1042
0.26 0.005 0 0 0 2.17944
0.265 0.005 0 0 0 2.2572
0.27 0.005 0 0 0 2.33737
0.275 0.005 0 0 0 2.41986
0.28 0.005 0 0 0 2.50455
0.285 0.005 0 0 0 2.59133
0.29 0.005 0 0 0 2.68008
0.295 0.005 0 0 0 2.77068
0.3 0.005 0 0 0 2.86302
0.305 0.005 0 0 0 2.95696
0.31 0.005 0 0 0 3.05237
0.315 0.005 0 0 0 3.14912
0.32 0.005 0 0 0 3.24705
0.325 0.005 0 0 0 3.34603
0.33 0.005 0 0 0 3.44591
0.335 0.005 0 0 0 3.54652
0.34 0.005 0 0 0 3.6477
0.345 0.005 0 0 0 3.74928
0.35 0.005 0 0 0 3.8511
0.355 0.005 0 0 0 3.95298
0.36 0.005 0 0 0 4.05474
0.365 0.005 0 0 0 4.15619
0.37 0.005 0 0 0 4.25714
0.375 0.005 0 0 0 4.35741
0.38 0.005 0 0 0 4.4568
0.385 0.005 0 0 0 4.55511
0.39 0.005 0 0 0 4.65215
0.395 0.005 0 0 0 4.74771
0.4 0.005 0 0 0 4.8416
0.405 0.005 0 0 0 4.93361
0.41 0.005 0 0 0 5.02353
0.415 0.005 0 0 0 5.11117
0.42 0.005 0 0 0 5.19633
0.425 0.005 0 0 0 5.27879
0.43 0.005 0 0 0 5.35838
0.435 0.005 0 0 0 5.43487
0.44 0.005 0 0 0 5.50809
0.445 0.005 0 0 0 5.57785
0.45 0.005 0 0 0 5.64395
0.455 0.005 0 0 0 5.70621
0.46 0.005 0 0 0 5.76446
0.465 0.005 0 0 0 5.81853
0.47 0.005 0 0 0 5.86825
0.475 0.005 0 0 0 5.91346
0.48 0.005 0 0 0 5.95402
0.485 0.005 0 0 0 5.98977
0.49 0.005 0 0 0 6.0206
0.495 0.005 0 0 0 6.04636
0.5 0.005 0 0 0 6.06695
0.505 0.005 0 0 0 6.08227
0.51 0.005 0 0 0 6.09221
0.515 0.005 0 0 0 6.0967
0.52 0.005 0 0 0 6.09566
0.525 0.005 0 0 0 6.08903
0.53 0.005 0 0 0 6.07678
0.535 0.005 0 0 0 6.05886
0.54 0.005 0 0 0 6.03525
0.545 0.005 0 0 0 6.00595
0.55 0.005 0 0 0 5.97097
0.555 0.005 0 0 0 5.93033
0.56 0.005 0 0 0 5.88406
0.565 0.005 0 0 0 5.83222
0.57 0.005 0 0 0 5.77487
0.575 0.005 0 0 0 5.71209
0.58 0.005 0 0 0 5.64399
0.585 0.005 0 0 0 5.57066
0.59 0.005 0 0 0 5.49224
0.595 0.005 0 0 0 5.40886
0.6 0.005 0 0 0 5.32067
0.605 0.005 0 0 0 5.22786
0.61 0.005 0 0 0 5.13059
0.615 0.005 0 0 0 5.02907
0.62 0.005 0 0 0 4.9235
0.625 0.005 0 0 0 4.8141
0.63 0.005 0 0 0 4.70109
0.635 0.005 0 0 0 4.58474
0.64 0.005 0 0 0 4.46528
0.645 0.005 0 0 0 4.34297
0.65 0.005 0 0 0 4.21809
0.655 0.005 0 0 0 4.09091
0.66 0.005 0 0 0 3.96172
0.665 0.005 0 0 0 3.8308
0.67 0.005 0 0 0 3.69845
0.675 0.005 0 0 0 3.56496
0.68 0.005 0 0 0 3.43062
0.685 0.005 0 0 0 3.29574
0.69 0.005 0 0 0 3.16062
0.695 0.005 0 0 0 3.02555
0.7 0.005 0 0 0 2.89082
0.705 0.005 0 0 0 2.75672
0.71 0.005 0 0 0 2.62353
0.715 0.005 0 0 0 2.49154
0.72 0.005 0 0 0 2.36101
0.725 0.005 0 0 0 2.23221
0.73 0.005 0 0 0 2.10538
0.735 0.005 0 0 0 1.98077
0.74 0.005 0 0 0 1.8586
0.745 0.005 0 0 0 1.7391
0.75 0.005 0 0 0 1.62247
0.755 0.005 0 0 0 1.50889
0.76 0.005 0 0 0 1.39856
0.765 0.005 0 0 0 1.29162
0.77 0.005 0 0 0 1.18822
0.775 0.005 0 0 0 1.08849
0.78 0.005 0 0 0 0.992556
0.785 0.005 0 0 0 0.900506
0.79 0.005 0 0 0 0.812425
0.795 0.005 0 0 0 0.72838
0.8 0.005 0 0 0 0.648422
0.805 0.005 0 0 0 0.572587
0.81 0.005 0 0 0 0.500894
0.815 0.005 0 0 0 0.43335
0.82 0.005 0 0 0 0.369944
0.825 0.005 0 0 0 0.310656
0.83 0.005 0 0 0 0.255449
0.835 0.005 0 0 0 0.204275
0.84 0.005 0 0 0 0.157075
0.845 0.005 0 0 0 0.113779
0.85 0.005 0 0 0 0.0743061
0.855 0.005 0 0 0 0.0385666
0.86 0.005 0 0 0 0.00646284
0.865 0.005 0 0 0 -0.0221106
0.87 0.005 0 0 0 -0.0472659
0.875 0.005 0 0 0 -0.0691209
0.88 0.005 0 0 0 -0.0877989
0.885 0.005 0 0 0 -0.103427
0.89 0.005 0 0 0 -0.116138
0.895 0.005 0 0 0 -0.126065
0.9 0.005 0 0 0 -0.133346
0.905 0.005 0 0 0 -0.138122
0.91 0.005 0 0 0 -0.140537
0.915 0.005 0 0 0 -0.140736
0.92 0.005 0 0 0 -0.138869
0.925 0.005 0 0 0 -0.13509
0.93 0.005 0 0 0 -0.129558
0.935 0.005 0 0 0 -0.122439
0.94 0.005 0 0 0 -0.113908
0.945 0.005 0 0 0 -0.104154
0.95 0.005 0 0 0 -0.0933805
0.955 0.005 0 0 0 -0.0818113
0.96 0.005 0 0 0 -0.0696986
0.965 0.005 0 0 0 -0.0573294
0.97 0.005 0 0 0 -0.0450354
0.975 0.005 0 0 0 -0.0332049
0.98 0.005 0 0 0 -0.022296
0.985 0.005 0 0 0 -0.0128466
0.99 0.005 0 0 0 -0.00546886
0.995 0.005 0 0 0 -0.000785595
1 0.005 0 0 0 0.000818495
0 0.01 0 0 0.000818495 0
0.005 0.01 0 0 0 -326.272
0.01 0.01 -0.180042 0.0775852 -0.000921601 -44.4054
0.015 0.01 -0.184849 -0.03501 -0.000775852 9.52725
0.02 0.01 -0.15636 -0.0351433 -0.000571501 19.1147
0.025 0.01 -0.12752 -0.0245801 -0.000424418 18.9892
0.03 0.01 -0.104115 -0.0166583 -0.0003257 16.8243
0.035 0.01 -0.085895 -0.0116645 -0.000257836 14.4945
0.04 0.01 -0.0716629 -0.00853684 -0.000209055 12.4285
0.045 0.01 -0.0603737 -0.00649767 -0.000172467 10.6801
0.05 0.01 -0.0512706 -0.0050972 -0.000144078 9.2142
0.055 0.01 -0.0438273 -0.00408662 -0.000121495 7.98327
0.06 0.01 -0.0376757 -0.00332666 -0.000103212 6.94531
0.065 0.01 -0.032552 -0.00273654 -8.82286e-05 6.06659
0.07 0.01 -0.0282613 -0.00226718 -7.58466e-05 5.32046
0.075 0.01 -0.024655 -0.00188725 -6.55568e-05 4.68573
0.08 0.01 -0.0216172 -0.00157579 -5.6974e-05 4.14525
0.085 0.01 -0.0190552 -0.00131809 -4.97988e-05 3.68497
0.09 0.01 -0.016894 -0.00110341 -4.37931e-05 3.29323
0.095 0.01 -0.0150715 -0.000923651 -3.87646e-05 2.96023
0.1 0.01 -0.0135365 -0.000772519 -3.45565e-05 2.67771
0.105 0.01 -0.0122461 -0.000645028 -3.10394e-05 2.43865
0.11 0.01 -0.0111644 -0.000537161 -2.81062e-05 2.23705
0.115 0.01 -0.0102611 -0.000445638 -2.56678e-05 2.06782
0.12 0.01 -0.00951057 -0.000367764 -2.36498e-05 1.92658
0.125 0.01 -0.00889139 -0.000301306 -2.19901e-05 1.8096
0.13 0.01 -0.0083853 -0.000244409 -2.06367e-05 1.71369
0.135 0.01 -0.0079769 -0.000195524 -1.9546e-05 1.63613
0.14 0.01 -0.00765318 -0.000153359 -1.86814e-05 1.57458
0.145 0.01 -0.00740313 -0.000116829 -1.80123e-05 1.52706
0.15 0.01 -0.00721744 -8.50268e-05 -1.75131e-05 1.49186
0.155 0.01 -0.00708825 -5.71916e-05 -1.7162e-05 1.46754
0.16 0.01 -0.0070089 -3.26849e-05 -1.69411e-05 1.45287
0.165 0.01 -0.00697377 -1.09716e-05 -1.68351e-05 1.44678
0.17 0.01 -0.0069781 8.39661e-06 -1.68314e-05 1.44839
0.175 0.01 -0.00701787 2.57952e-05 -1.69191e-05 1.45692
0.18 0.01 -0.00708967 4.15379e-05 -1.70893e-05 1.47172
0.185 0.01 -0.00719062 5.5887e-05 -1.73344e-05 1.49224
0.19 0.01 -0.00731826 6.90605e-05 -1.76481e-05 1.51798
0.195 0.01 -0.00747051 8.12397e-05 -1.8025e-05 1.54855
0.2 0.01 -0.00764558 9.25749e-05 -1.84605e-05 1.58358
0.205 0.01 -0.00784194 0.00010319 -1.89507e-05 1.62277
0.21 0.01 -0.00805826 0.000113186 -1.94924e-05 1.66586
0.215 0.01 -0.0082934 0.000122647 -2.00826e-05 1.7126
0.22 0.01 -0.00854634 0.000131639 -2.07188e-05 1.76278
0.225 0.01 -0.00881618 0.000140217 -2.13989e-05 1.81623
0.23 0.01 -0.00910213 0.000148423 -2.2121e-05 1.87278
0.235 0.01 -0.00940344 0.000156292 -2.28832e-05 1.93226
0.24 0.01 -0.00971944 0.000163847 -2.36839e-05 1.99455
0.245 0.01 -0.0100495 0.000171109 -2.45216e-05 2.05949
0.25 0.01 -0.010393 0.000178091 -2.5395e-05 2.12697
0.255 0.01 -0.0107493 0.000184801 -2.63025e-05 2.19685
0.26 0.01 -0.011118 0.000191244 -2.7243e-05 2.26903
0.265 0.01 -0.0114984 0.000197421 -2.82149e-05 2.34338
0.27 0.01 -0.01189 0.000203331 -2.92172e-05 2.41978
0.275 0.01 -0.0122922 0.00020897 -3.02482e-05 2.49811
0.28 0.01 -0.0127044 0.000214332 -3.13069e-05 2.57826
0.285 0.01 -0.0131261 0.00021941 -3.23916e-05 2.66009
0.29 0.01 -0.0135566 0.000224195 -3.3501e-05 2.7435
0.295 0.01 -0.0139954 0.000228677 -3.46335e-05 2.82834
0.3 0.01 -0.0144418 0.000232846 -3.57877e-05 2.91449
0.305 0.01 -0.0148951 0.000236689 -3.6962e-05 3.00182
0.31 0.01 -0.0153547 0.000240195 -3.81546e-05 3.09019
0.315 0.01 -0.0158199 0.000243352 -3.9364e-05 3.17946
0.32 0.01 -0.01629 0.000246147 -4.05882e-05 3.26948
0.325 0.01 -0.0167643 0.000248567 -4.18254e-05 3.36011
0.33 0.01 -0.0172419 0.000250601 -4.30739e-05 3.45121
0.335 0.01 -0.0177221 0.000252235 -4.43315e-05 3.5426
0.34 0.01 -0.0182041 0.000253457 -4.55962e-05 3.63415
0.345 0.01 -0.0186871 0.000254256 -4.68661e-05 3.72568
0.35 0.01 -0.0191703 0.00025462 -4.81388e-05 3.81703
0.355 0.01 -0.0196527 0.000254538 -4.94123e-05 3.90805
0.36 0.01 -0.0201336 0.000254002 -5.06843e-05 3.99855
0.365 0.01 -0.020612 0.000253 -5.19524e-05 4.08838
0.37 0.01 -0.0210871 0.000251524 -5.32143e-05 4.17735
0.375 0.01 -0.0215579 0.000249568 -5.44677e-05 4.2653
0.38 0.01 -0.0220235 0.000247123 -5.571e-05 4.35204
0.385 0.01 -0.0224829 0.000244184 -5.6939e-05 4.43742
0.39 0.01 -0.0229353 0.000240747 -5.81519e-05 4.52124
0.395 0.01 -0.0233797 0.000236806 -5.93465e-05 4.60334
0.4 0.01 -0.0238152 0.000232361 -6.05201e-05 4.68354
0.405 0.01 -0.0242408 0.000227409 -6.16702e-05 4.76166
0.41 0.01 -0.0246555 0.00022195 -6.27942e-05 4.83754
0.415 0.01 -0.0250586 0.000215986 -6.38897e-05 4.911
0.42 0.01 -0.0254489 0.000209518 -6.49542e-05 4.98188
0.425 0.01 -0.0258256 0.000202551 -6.5985e-05 5.05
0.43 0.01 -0.0261878 0.000195089 -6.69798e-05 5.11521
0.435 0.01 -0.0265346 0.000187139 -6.7936e-05 5.17734
0.44 0.01 -0.0268652 0.000178708 -6.88513e-05 5.23625
0.445 0.01 -0.0271786 0.000169806 -6.97232e-05 5.29177
0.45 0.01 -0.0274741 0.000160444 -7.05494e-05 5.34376
0.455 0.01 -0.0277508 0.000150633 -7.13277e-05 5.39209
0.46 0.01 -0.0280079 0.000140388 -7.20559e-05 5.43661
0.465 0.01 -0.0282448 0.000129722 -7.27317e-05 5.47719
0.47 0.01 -0.0284606 0.000118653 -7.33532e-05 5.51372
0.475 0.01 -0.0286547 0.000107199 -7.39184e-05 5.54608
0.48 0.01 -0.0288264 9.53782e-05 -7.44253e-05 5.57415
0.485 0.01 -0.0289752 8.32121e-05 -7.48723e-05 5.59784
0.49 0.01 -0.0291005 7.07226e-05 -7.52576e-05 5.61705
0.495 0.01 -0.0292017 5.79333e-05 -7.55797e-05 5.63171
0.5 0.01 -0.0292783 4.4869e-05 -7.58371e-05 5.64172
0.505 0.01 -0.02933 3.1556e-05 -7.60285e-05 5.64704
0.51 0.01 -0.0293563 1.80217e-05 -7.61528e-05 5.64759
0.515 0.01 -0.029357 4.29484e-06 -7.62089e-05 5.64334
0.52 0.01 -0.0293318 -9.5948e-06 -7.61959e-05 5.63425
0.525 0.01 -0.0292803 -2.36162e-05 -7.61131e-05 5.62028
0.53 0.01 -0.0292026 -3.77373e-05 -7.59599e-05 5.60142
0.535 0.01 -0.0290985 -5.19252e-05 -7.57359e-05 5.57768
0.54 0.01 -0.0289679 -6.61458e-05 -7.54408e-05 5.54904
0.545 0.01 -0.0288108 -8.03647e-05 -7.50746e-05 5.51554
0.55 0.01 -0.0286275 -9.45463e-05 -7.46373e-05 5.47719
0.555 0.01 -0.028418 -0.000108655 -7.41293e-05 5.43404
0.56 0.01 -0.0281825 -0.000122653 -7.35509e-05 5.38613
0.565 0.01 -0.0279213 -0.000136505 -7.29029e-05 5.33354
0.57 0.01 -0.0276348 -0.000150174 -7.21861e-05 5.27633
0.575 0.01 -0.0273234 -0.000163622 -7.14014e-05 5.21459
0.58 0.01 -0.0269875 -0.000176812 -7.055e-05 5.14841
0.585 0.01 -0.0266278 -0.000189707 -6.96334e-05 5.07791
0.59 0.01 -0.0262448 -0.000202271 -6.86531e-05 5.0032
0.595 0.01 -0.0258392 -0.000214468 -6.76109e-05 4.92441
0.6 0.01 -0.0254117 -0.000226262 -6.65086e-05 4.84169
0.605 0.01 -0.0249632 -0.000237618 -6.53484e-05 4.75518
0.61 0.01 -0.0244944 -0.000248504 -6.41326e-05 4.66505
0.615 0.01 -0.0240064 -0.000258887 -6.28635e-05 4.57146
0.62 0.01 -0.0235001 -0.000268735 -6.15439e-05 4.4746
0.625 0.01 -0.0229764 -0.00027802 -6.01764e-05 4.37466
0.63 0.01 -0.0224365 -0.000286714 -5.87638e-05 4.27183
0.635 0.01 -0.0218815 -0.00029479 -5.73094e-05 4.16631
0.64 0.01 -0.0213126 -0.000302225 -5.58161e-05 4.05832
0.645 0.01 -0.0207309 -0.000308997 -5.42873e-05 3.94809
0.65 0.01 -0.0201377 -0.000315087 -5.27263e-05 3.83582
0.655 0.01 -0.0195342 -0.000320477 -5.11366e-05 3.72175
0.66 0.01 -0.0189218 -0.000325153 -4.95216e-05 3.60612
0.665 0.01 -0.0183017 -0.000329104 -4.78852e-05 3.48915
0.67 0.01 -0.0176753 -0.000332321 -4.62307e-05 3.3711
0.675 0.01 -0.017044 -0.000334796 -4.45621e-05 3.2522
0.68 0.01 -0.016409 -0.000336527 -4.28829e-05 3.1327
0.685 0.01 -0.0157718 -0.000337514 -4.11969e-05 3.01283
0.69 0.01 -0.0151336 -0.000337759 -3.95079e-05 2.89284
0.695 0.01 -0.0144959 -0.000337268 -3.78194e-05 2.77298
0.7 0.01 -0.01386 -0.000336049 -3.61353e-05 2.65348
0.705 0.01 -0.0132271 -0.000334115 -3.4459e-05 2.53457
0.71 0.01 -0.0125986 -0.000331479 -3.27942e-05 2.41649
0.715 0.01 -0.0119757 -0.000328159 -3.11443e-05 2.29946
0.72 0.01 -0.0113597 -0.000324175 -2.95127e-05 2.18371
0.725 0.01 -0.0107517 -0.00031955 -2.79027e-05 2.06944
0.73 0.01 -0.0101529 -0.000314308 -2.63173e-05 1.95687
0.735 0.01 -0.00956434 -0.000308478 -2.47596e-05 1.84619
0.74 0.01 -0.00898716 -0.000302089 -2.32326e-05 1.73759
0.745 0.01 -0.00842232 -0.000295172 -2.17388e-05 1.63126
0.75 0.01 -0.00787074 -0.000287762 -2.02809e-05 1.52736
0.755 0.01 -0.00733332 -0.000279893 -1.88612e-05 1.42605
0.76 0.01 -0.00681085 -0.000271603 -1.7482e-05 1.32748
0.765 0.01 -0.00630409 -0.000262928 -1.61452e-05 1.23179
0.77 0.01 -0.00581372 -0.000253907 -1.48528e-05 1.13911
0.775 0.01 -0.00534035 -0.00024458 -1.36062e-05 1.04954
0.78 0.01 -0.00488451 -0.000234986 -1.2407e-05 0.963191
0.785 0.01 -0.00444667 -0.000225166 -1.12563e-05 0.880148
0.79 0.01 -0.00402724 -0.000215159 -1.01553e-05 0.800488
0.795 0.01 -0.00362652 -0.000205005 -9.10476e-06 0.724273
0.8 0.01 -0.00324479 -0.000194742 -8.10528e-06 0.651553
0.805 0.01 -0.00288221 -0.000184411 -7.15734e-06 0.582368
0.81 0.01 -0.0025389 -0.000174047 -6.26118e-06 0.516742
0.815 0.01 -0.00221492 -0.000163687 -5.41687e-06 0.454689
0.82 0.01 -0.00191024 -0.000153367 -4.6243e-06 0.396211
0.825 0.01 -0.00162478 -0.000143119 -3.88319e-06 0.341298
0.83 0.01 -0.0013584 -0.000132975 -3.1931e-06 0.289931
0.835 0.01 -0.00111091 -0.000122966 -2.55343e-06 0.242077
0.84 0.01 -0.000882046 -0.000113119 -1.96343e-06 0.197696
0.845 0.01 -0.00067151 -0.00010346 -1.42222e-06 0.156737
0.85 0.01 -0.00047895 -9.4014e-05 -9.28808e-07 0.119142
0.855 0.01 -0.000303972 -8.48023e-05 -4.82064e-07 0.0848413
0.86 0.01 -0.000146143 -7.58447e-05 -8.07666e-08 0.0537606
0.865 0.01 -4.99049e-06 -6.7159e-05 2.76402e-07 0.0258171
0.87 0.01 0.000119989 -5.87609e-05 5.90844e-07 0.000921423
0.875 0.01 0.00022933 -5.06642e-05 8.64032e-07 -0.0210214
0.88 0.01 0.000323592 -4.28809e-05 1.09751e-06 -0.0401121
0.885 0.01 0.000403359 -3.54214e-05 1.29286e-06 -0.0564561
0.89 0.01 0.000469235 -2.82946e-05 1.45174e-06 -0.0701638
0.895 0.01 0.000521844 -2.15085e-05 1.57583e-06 -0.0813495
0.9 0.01 0.000561827 -1.50703e-05 1.66684e-06 -0.0901316
0.905 0.01 0.000589842 -8.98683e-06 1.72655e-06 -0.0966326
0.91 0.01 0.000606561 -3.26524e-06 1.75673e-06 -0.100979
0.915 0.01 0.000612676 2.08659e-06 1.75921e-06 -0.103301
0.92 0.01 0.000608899 7.05917e-06 1.73588e-06 -0.103734
0.925 0.01 0.000595963 1.16406e-05 1.68864e-06 -0.102418
0.93 0.01 0.000574633 1.58152e-05 1.61948e-06 -0.0995014
0.935 0.01 0.000545706 1.95628e-05 1.53049e-06 -0.0951375
0.94 0.01 0.000510028 2.28565e-05 1.42386e-06 -0.0894905
0.945 0.01 0.000468501 2.56609e-05 1.30194e-06 -0.0827356
0.95 0.01 0.000422101 2.79298e-05 1.16726e-06 -0.0750621
0.955 0.01 0.000371899 2.96031e-05 1.02265e-06 -0.0666761
0.96 0.01 0.000319078 3.0603e-05 8.71238e-07 -0.0578042
0.965 0.01 0.000264971 3.08296e-05 7.16622e-07 -0.0486966
0.97 0.01 0.000211084 3.01561e-05 5.62945e-07 -0.0396298
0.975 0.01 0.000159129 2.84245e-05 4.15063e-07 -0.0309077
0.98 0.01 0.000111055 2.54481e-05 2.78701e-07 -0.0228558
0.985 0.01 6.90348e-05 2.10341e-05 1.60583e-07 -0.0158032
0.99 0.01 3.53851e-05 1.50763e-05 6.83608e-08 -0.0100325
0.995 0.01 1.22791e-05 7.8592e-06 9.81983e-09 -0.00566566
1 0.01 9.80383e-07 9.81983e-07 -1.02313e-08 -0.00242196
0 0.015 0 0 -0.000784306 0
0.005 0.015 0 0 0 -255.967
0.01 0.015 -0.152848 0.184849 -0.00180042 -79.2599
0.015 0.015 -0.206221 -0.0236815 -0.00184849 -16.6405
0.02 0.015 -0.204557 -0.0573282 -0.0015636 2.31431
0.025 0.015 -0.184542 -0.0522447 -0.0012752 7.92795
0.03 0.015 -0.16104 -0.0416253 -0.00104115 9.25331
0.035 0.015 -0.13904 -0.0324526 -0.00085895 9.12195
0.04 0.015 -0.119827 -0.0255213 -0.000716629 8.50195
0.045 0.015 -0.103435 -0.0203924 -0.000603737 7.74679
0.05 0.015 -0.0895401 -0.0165465 -0.000512706 6.98981
0.055 0.015 -0.0777654 -0.0135948 -0.000438272 6.28069
0.06 0.015 -0.067771 -0.0112752 -0.000376757 5.63594
0.065 0.015 -0.059272 -0.00941443 -0.00032552 5.05864
0.07 0.015 -0.0520345 -0.00789705 -0.000282613 4.54634
0.075 0.015 -0.0458663 -0.00664408 -0.00024655 4.09449
0.08 0.015 -0.0406082 -0.00559973 -0.000216172 3.69784
0.085 0.015 -0.0361278 -0.00472321 -0.000190552 3.35111
0.09 0.015 -0.0323134 -0.00398374 -0.000168939 3.0492
0.095 0.015 -0.0290709 -0.00335745 -0.000150715 2.78738
0.1 0.015 -0.0263203 -0.00282534 -0.000135365 2.56131
0.105 0.015 -0.0239933 -0.00237208 -0.000122461 2.36704
0.11 0.015 -0.0220316 -0.00198505 -0.000111644 2.201
0.115 0.015 -0.0203857 -0.00165381 -0.00010261 2.06001
0.12 0.015 -0.0190129 -0.00136965 -9.51055e-05 1.94122
0.125 0.015 -0.0178769 -0.00112526 -8.89137e-05 1.8421
0.13 0.015 -0.0169466 -0.000914472 -8.38528e-05 1.76041
0.135 0.015 -0.0161954 -0.0007321 -7.97688e-05 1.6942
0.14 0.015 -0.0156007 -0.000573754 -7.65317e-05 1.64173
0.145 0.015 -0.0151431 -0.000435721 -7.40312e-05 1.60148
0.15 0.015 -0.0148061 -0.000314865 -7.21743e-05 1.57214
0.155 0.015 -0.0145756 -0.000208529 -7.08824e-05 1.55254
0.16 0.015 -0.0144395 -0.000114469 -7.00889e-05 1.54168
0.165 0.015 -0.0143877 -3.07893e-05 -6.97376e-05 1.53869
0.17 0.015 -0.0144114 4.41121e-05 -6.97809e-05 1.54279
0.175 0.015 -0.0145032 0.000111584 -7.01786e-05 1.55333
0.18 0.015 -0.0146566 0.000172763 -7.08966e-05 1.56972
0.185 0.015 -0.0148663 0.000228602 -7.19061e-05 1.59148
0.19 0.015 -0.0151276 0.000279901 -7.31825e-05 1.61815
0.195 0.015 -0.0154366 0.000327327 -7.4705e-05 1.64935
0.2 0.015 -0.0157896 0.000371436 -7.64557e-05 1.68476
0.205 0.015 -0.0161839 0.00041269 -7.84193e-05 1.72406
0.21 0.015 -0.0166167 0.00045147 -8.05825e-05 1.767
0.215 0.015 -0.0170858 0.000488086 -8.29339e-05 1.81333
0.22 0.015 -0.0175891 0.000522793 -8.54633e-05 1.86285
0.225 0.015 -0.0181249 0.000555797 -8.81618e-05 1.91537
0.23 0.015 -0.0186914 0.00058726 -9.10212e-05 1.9707
0.235 0.015 -0.0192873 0.000617312 -9.40343e-05 2.02869
0.24 0.015 -0.019911 0.000646052 -9.71943e-05 2.08917
0.245 0.015 -0.0205612 0.000673553 -0.000100495 2.15201
0.25 0.015 -0.0212367 0.000699869 -0.00010393 2.21705
0.255 0.015 -0.0219363 0.000725034 -0.000107493 2.28417
0.26 0.015 -0.0226588 0.000749068 -0.00011118 2.35323
0.265 0.015 -0.0234029 0.000771979 -0.000114984 2.42411
0.27 0.015 -0.0241676 0.000793765 -0.0001189 2.49667
0.275 0.015 -0.0249516 0.000814412 -0.000122922 2.57078
0.28 0.015 -0.0257538 0.000833902 -0.000127044 2.64631
0.285 0.015 -0.0265728 0.00085221 -0.000131261 2.72314
0.29 0.015 -0.0274076 0.000869304 -0.000135566 2.80113
0.295 0.015 -0.0282568 0.000885152 -0.000139954 2.88014
0.3 0.015 -0.0291192 0.000899715 -0.000144418 2.96005
0.305 0.015 -0.0299933 0.000912955 -0.000148951 3.04071
0.31 0.015 -0.0308779 0.000924829 -0.000153547 3.12199
0.315 0.015 -0.0317716 0.000935295 -0.000158199 3.20374
0.32 0.015 -0.0326728 0.000944311 -0.0001629 3.28582
0.325 0.015 -0.0335803 0.000951833 -0.000167643 3.36808
0.33 0.015 -0.0344923 0.000957819 -0.000172419 3.45038
0.335 0.015 -0.0354075 0.000962228 -0.000177221 3.53256
0.34 0.015 -0.0363242 0.00096502 -0.000182041 3.61449
0.345 0.015 -0.0372409 0.000966156 -0.000186871 3.69599
0.35 0.015 -0.0381558 0.0009656 -0.000191703 3.77693
0.355 0.015 -0.0390675 0.000963319 -0.000196527 3.85714
0.36 0.015 -0.039974 0.000959279 -0.000201336 3.93647
0.365 0.015 -0.0408739 0.000953455 -0.00020612 4.01477
0.37 0.015 -0.0417653 0.000945819 -0.000210871 4.09188
0.375 0.015 -0.0426466 0.000936351 -0.000215579 4.16765
0.38 0.015 -0.0435159 0.000925032 -0.000220235 4.24192
0.385 0.015 -0.0443715 0.000911848 -0.000224829 4.31454
0.39 0.015 -0.0452117 0.000896789 -0.000229353 4.38537
0.395 0.015 -0.0460348 0.000879848 -0.000233798 4.45424
0.4 0.015 -0.0468389 0.000861024 -0.000238152 4.52101
0.405 0.015 -0.0476223 0.00084032 -0.000242408 4.58555
0.41 0.015 -0.0483833 0.000817741 -0.000246556 4.6477
0.415 0.015 -0.0491202 0.000793302 -0.000250586 4.70732
0.42 0.015 -0.0498313 0.000767017 -0.000254489 4.76429
0.425 0.015 -0.050515 0.000738909 -0.000258256 4.81847
0.43 0.015 -0.0511695 0.000709004 -0.000261879 4.86973
0.435 0.015 -0.0517933 0.000677333 -0.000265347 4.91796
0.44 0.015 -0.0523849 0.000643932 -0.000268652 4.96302
0.445 0.015 -0.0529427 0.000608844 -0.000271787 5.00481
0.45 0.015 -0.0534652 0.000572113 -0.000274741 5.04323
0.455 0.015 -0.0539511 0.000533793 -0.000277508 5.07816
0.46 0.015 -0.0543989 0.000493939 -0.00028008 5.10952
0.465 0.015 -0.0548073 0.000452612 -0.000282448 5.13722
0.47 0.015 -0.0551752 0.00040988 -0.000284606 5.16117
0.475 0.015 -0.0555014 0.000365812 -0.000286547 5.18129
0.48 0.015 -0.0557847 0.000320487 -0.000288265 5.19752
0.485 0.015 -0.0560241 0.000273984 -0.000289753 5.20979
0.49 0.015 -0.0562187 0.00022639 -0.000291005 5.21806
0.495 0.015 -0.0563677 0.000177794 -0.000292017 5.22226
0.5 0.015 -0.0564703 0.000128292 -0.000292784 5.22238
0.505 0.015 -0.0565257 7.79815e-05 -0.000293301 5.21836
0.51 0.015 -0.0565334 2.69668e-05 -0.000293564 5.2102
0.515 0.015 -0.056493 -2.46455e-05 -0.000293571 5.19787
0.52 0.015 -0.0564041 -7.67445e-05 -0.000293318 5.18137
0.525 0.015 -0.0562663 -0.000129216 -0.000292804 5.1607
0.53 0.015 -0.0560795 -0.000181942 -0.000292027 5.13587
0.535 0.015 -0.0558436 -0.000234802 -0.000290985 5.1069
0.54 0.015 -0.0555587 -0.000287674 -0.000289679 5.07383
0.545 0.015 -0.055225 -0.00034043 -0.000288109 5.03667
0.55 0.015 -0.0548426 -0.000392945 -0.000286276 4.99549
0.555 0.015 -0.054412 -0.000445088 -0.00028418 4.95033
0.56 0.015 -0.0539337 -0.000496729 -0.000281825 4.90125
0.565 0.015 -0.0534084 -0.000547737 -0.000279214 4.84834
0.57 0.015 -0.0528366 -0.000597979 -0.000276349 4.79165
0.575 0.015 -0.0522193 -0.000647326 -0.000273235 4.73129
0.58 0.015 -0.0515575 -0.000695644 -0.000269876 4.66735
0.585 0.015 -0.0508522 -0.000742805 -0.000266279 4.59993
0.59 0.015 -0.0501046 -0.00078868 -0.000262449 4.52914
0.595 0.015 -0.049316 -0.000833143 -0.000258393 4.4551
0.6 0.015 -0.0484878 -0.00087607 -0.000254118 4.37794
0.605 0.015 -0.0476215 -0.000917341 -0.000249633 4.29779
0.61 0.015 -0.0467188 -0.000956839 -0.000244945 4.21479
0.615 0.015 -0.0457813 -0.000994453 -0.000240065 4.12909
0.62 0.015 -0.0448109 -0.00103007 -0.000235001 4.04084
0.625 0.015 -0.0438094 -0.0010636 -0.000229765 3.95019
0.63 0.015 -0.0427788 -0.00109494 -0.000224366 3.85732
0.635 0.015 -0.0417213 -0.001124 -0.000218816 3.76239
0.64 0.015 -0.0406388 -0.00115071 -0.000213126 3.66558
0.645 0.015 -0.0395336 -0.00117497 -0.000207309 3.56705
0.65 0.015 -0.038408 -0.00119674 -0.000201377 3.467
0.655 0.015 -0.0372642 -0.00121595 -0.000195342 3.36561
0.66 0.015 -0.0361046 -0.00123255 -0.000189218 3.26306
0.665 0.015 -0.0349317 -0.00124651 -0.000183017 3.15954
0.67 0.015 -0.0337477 -0.00125779 -0.000176754 3.05525
0.675 0.015 -0.0325552 -0.00126637 -0.00017044 2.95037
0.68 0.015 -0.0313565 -0.00127225 -0.00016409 2.8451
0.685 0.015 -0.0301542 -0.00127542 -0.000157718 2.73963
0.69 0.015 -0.0289507 -0.0012759 -0.000151337 2.63415
0.695 0.015 -0.0277484 -0.0012737 -0.000144959 2.52884
0.7 0.015 -0.0265496 -0.00126886 -0.0001386 2.42391
0.705 0.015 -0.0253569 -0.00126142 -0.000132271 2.31953
0.71 0.015 -0.0241725 -0.00125143 -0.000125986 2.21589
0.715 0.015 -0.0229986 -0.00123895 -0.000119757 2.11316
0.72 0.015 -0.0218376 -0.00122406 -0.000113597 2.01152
0.725 0.015 -0.0206915 -0.00120683 -0.000107517 1.91114
0.73 0.015 -0.0195625 -0.00118735 -0.000101529 1.81219
0.735 0.015 -0.0184525 -0.00116572 -9.56436e-05 1.71482
0.74 0.015 -0.0173635 -0.00114205 -8.98718e-05 1.61919
0.745 0.015 -0.0162972 -0.00111644 -8.42234e-05 1.52544
0.75 0.015 -0.0152555 -0.00108902 -7.87076e-05 1.43371
0.755 0.015 -0.0142398 -0.00105991 -7.33333e-05 1.34413
0.76 0.015 -0.0132517 -0.00102924 -6.81087e-05 1.25683
0.765 0.015 -0.0122926 -0.000997143 -6.30411e-05 1.17192
0.77 0.015 -0.0113637 -0.000963758 -5.81373e-05 1.0895
0.775 0.015 -0.0104661 -0.000929224 -5.34036e-05 1.00968
0.78 0.015 -0.00960097 -0.000893684 -4.88452e-05 0.932532
0.785 0.015 -0.00876906 -0.000857281 -4.44668e-05 0.858147
0.79 0.015 -0.00797117 -0.000820157 -4.02724e-05 0.78659
0.795 0.015 -0.00720793 -0.000782456 -3.62653e-05 0.717921
0.8 0.015 -0.00647983 -0.000744319 -3.24479e-05 0.652188
0.805 0.015 -0.00578725 -0.000705885 -2.88221e-05 0.589432
0.81 0.015 -0.00513046 -0.000667289 -2.5389e-05 0.529683
0.815 0.015 -0.00450957 -0.000628664 -2.21492e-05 0.472963
0.82 0.015 -0.0039246 -0.000590138 -1.91024e-05 0.419282
0.825 0.015 -0.00337544 -0.000551833 -1.62478e-05 0.368642
0.83 0.015 -0.00286189 -0.000513869 -1.3584e-05 0.321038
0.835 0.015 -0.00238362 -0.000476355 -1.11091e-05 0.276453