Title=" Lid Driven Flow"
VARIABLES="X","Y","U","V","psi","xi"
ZONE T= "BOX", I= 201, J=201, F=POINT
0 0 0 0 0.00321848 0
0.005 0 0 0 0 0
0.01 0 0 0 0 0
0.015 0 0 0 0 161.891
0.02 0 0 0 0 176.122
0.025 0 0 0 0 155.601
0.03 0 0 0 0 133.209
0.035 0 0 0 0 115.687
0.04 0 0 0 0 102.831
0.045 0 0 0 0 93.2973
0.05 0 0 0 0 85.9747
0.055 0 0 0 0 80.1307
0.06 0 0 0 0 75.3065
0.065 0 0 0 0 71.2134
0.07 0 0 0 0 67.6637
0.075 0 0 0 0 64.5309
0.08 0 0 0 0 61.7266
0.085 0 0 0 0 59.1873
0.09 0 0 0 0 56.8663
0.095 0 0 0 0 54.7285
0.1 0 0 0 0 52.7468
0.105 0 0 0 0 50.9004
0.11 0 0 0 0 49.1724
0.115 0 0 0 0 47.5497
0.12 0 0 0 0 46.0212
0.125 0 0 0 0 44.5779
0.13 0 0 0 0 43.2123
0.135 0 0 0 0 41.9178
0.14 0 0 0 0 40.6888
0.145 0 0 0 0 39.5205
0.15 0 0 0 0 38.4085
0.155 0 0 0 0 37.3488
0.16 0 0 0 0 36.338
0.165 0 0 0 0 35.3729
0.17 0 0 0 0 34.4505
0.175 0 0 0 0 33.568
0.18 0 0 0 0 32.7229
0.185 0 0 0 0 31.9129
0.19 0 0 0 0 31.1358
0.195 0 0 0 0 30.3893
0.2 0 0 0 0 29.6717
0.205 0 0 0 0 28.981
0.21 0 0 0 0 28.3155
0.215 0 0 0 0 27.6736
0.22 0 0 0 0 27.0536
0.225 0 0 0 0 26.4542
0.23 0 0 0 0 25.8739
0.235 0 0 0 0 25.3113
0.24 0 0 0 0 24.7654
0.245 0 0 0 0 24.2348
0.25 0 0 0 0 23.7185
0.255 0 0 0 0 23.2155
0.26 0 0 0 0 22.7247
0.265 0 0 0 0 22.2452
0.27 0 0 0 0 21.7763
0.275 0 0 0 0 21.317
0.28 0 0 0 0 20.8666
0.285 0 0 0 0 20.4244
0.29 0 0 0 0 19.9897
0.295 0 0 0 0 19.562
0.3 0 0 0 0 19.1406
0.305 0 0 0 0 18.725
0.31 0 0 0 0 18.3148
0.315 0 0 0 0 17.9095
0.32 0 0 0 0 17.5087
0.325 0 0 0 0 17.1121
0.33 0 0 0 0 16.7192
0.335 0 0 0 0 16.3299
0.34 0 0 0 0 15.9438
0.345 0 0 0 0 15.5607
0.35 0 0 0 0 15.1805
0.355 0 0 0 0 14.8029
0.36 0 0 0 0 14.4278
0.365 0 0 0 0 14.0552
0.37 0 0 0 0 13.6849
0.375 0 0 0 0 13.3169
0.38 0 0 0 0 12.9511
0.385 0 0 0 0 12.5876
0.39 0 0 0 0 12.2264
0.395 0 0 0 0 11.8674
0.4 0 0 0 0 11.5108
0.405 0 0 0 0 11.1567
0.41 0 0 0 0 10.8051
0.415 0 0 0 0 10.4562
0.42 0 0 0 0 10.1101
0.425 0 0 0 0 9.76692
0.43 0 0 0 0 9.42683
0.435 0 0 0 0 9.09002
0.44 0 0 0 0 8.75666
0.445 0 0 0 0 8.42695
0.45 0 0 0 0 8.10108
0.455 0 0 0 0 7.77926
0.46 0 0 0 0 7.46169
0.465 0 0 0 0 7.1486
0.47 0 0 0 0 6.84018
0.475 0 0 0 0 6.53667
0.48 0 0 0 0 6.23826
0.485 0 0 0 0 5.94518
0.49 0 0 0 0 5.65761
0.495 0 0 0 0 5.37577
0.5 0 0 0 0 5.09984
0.505 0 0 0 0 4.83001
0.51 0 0 0 0 4.56645
0.515 0 0 0 0 4.30931
0.52 0 0 0 0 4.05876
0.525 0 0 0 0 3.81492
0.53 0 0 0 0 3.57792
0.535 0 0 0 0 3.34787
0.54 0 0 0 0 3.12485
0.545 0 0 0 0 2.90895
0.55 0 0 0 0 2.70022
0.555 0 0 0 0 2.4987
0.56 0 0 0 0 2.30443
0.565 0 0 0 0 2.11741
0.57 0 0 0 0 1.93762
0.575 0 0 0 0 1.76506
0.58 0 0 0 0 1.59968
0.585 0 0 0 0 1.44142
0.59 0 0 0 0 1.29021
0.595 0 0 0 0 1.14596
0.6 0 0 0 0 1.00858
0.605 0 0 0 0 0.877956
0.61 0 0 0 0 0.75396
0.615 0 0 0 0 0.636458
0.62 0 0 0 0 0.525304
0.625 0 0 0 0 0.420343
0.63 0 0 0 0 0.321412
0.635 0 0 0 0 0.22834
0.64 0 0 0 0 0.14095
0.645 0 0 0 0 0.0590617
0.65 0 0 0 0 -0.0175124
0.655 0 0 0 0 -0.0889614
0.66 0 0 0 0 -0.155478
0.665 0 0 0 0 -0.217255
0.67 0 0 0 0 -0.274489
0.675 0 0 0 0 -0.327376
0.68 0 0 0 0 -0.376111
0.685 0 0 0 0 -0.42089
0.69 0 0 0 0 -0.461909
0.695 0 0 0 0 -0.499361
0.7 0 0 0 0 -0.53344
0.705 0 0 0 0 -0.564336
0.71 0 0 0 0 -0.59224
0.715 0 0 0 0 -0.617338
0.72 0 0 0 0 -0.639814
0.725 0 0 0 0 -0.659851
0.73 0 0 0 0 -0.677626
0.735 0 0 0 0 -0.693312
0.74 0 0 0 0 -0.707076
0.745 0 0 0 0 -0.719079
0.75 0 0 0 0 -0.729475
0.755 0 0 0 0 -0.738408
0.76 0 0 0 0 -0.746013
0.765 0 0 0 0 -0.752414
0.77 0 0 0 0 -0.75772
0.775 0 0 0 0 -0.762029
0.78 0 0 0 0 -0.765424
0.785 0 0 0 0 -0.76797
0.79 0 0 0 0 -0.769717
0.795 0 0 0 0 -0.7707
0.8 0 0 0 0 -0.770934
0.805 0 0 0 0 -0.770418
0.81 0 0 0 0 -0.769135
0.815 0 0 0 0 -0.767053
0.82 0 0 0 0 -0.764123
0.825 0 0 0 0 -0.760284
0.83 0 0 0 0 -0.755465
0.835 0 0 0 0 -0.749582
0.84 0 0 0 0 -0.742547
0.845 0 0 0 0 -0.734264
0.85 0 0 0 0 -0.724637
0.855 0 0 0 0 -0.71357
0.86 0 0 0 0 -0.700971
0.865 0 0 0 0 -0.686753
0.87 0 0 0 0 -0.670841
0.875 0 0 0 0 -0.653171
0.88 0 0 0 0 -0.633696
0.885 0 0 0 0 -0.612388
0.89 0 0 0 0 -0.589241
0.895 0 0 0 0 -0.564272
0.9 0 0 0 0 -0.537527
0.905 0 0 0 0 -0.509079
0.91 0 0 0 0 -0.479035
0.915 0 0 0 0 -0.447532
0.92 0 0 0 0 -0.414743
0.925 0 0 0 0 -0.380877
0.93 0 0 0 0 -0.346177
0.935 0 0 0 0 -0.310925
0.94 0 0 0 0 -0.27544
0.945 0 0 0 0 -0.240076
0.95 0 0 0 0 -0.205226
0.955 0 0 0 0 -0.171322
0.96 0 0 0 0 -0.138829
0.965 0 0 0 0 -0.108252
0.97 0 0 0 0 -0.0801307
0.975 0 0 0 0 -0.0550371
0.98 0 0 0 0 -0.0335681
0.985 0 0 0 0 -0.0163263
0.99 0 0 0 0 -0.00387409
0.995 0 0 0 0 0.00337516
1 0 0 0 0 0.00541257
0 0.005 0 0 0 0
0.005 0.005 0 0 0 0
0.01 0.005 0 0 0 73.7281
0.015 0.005 0 0 0 62.0687
0.02 0.005 0 0 0 45.7215
0.025 0.005 0 0 0 33.9554
0.03 0.005 0 0 0 26.0579
0.035 0.005 0 0 0 20.628
0.04 0.005 0 0 0 16.7245
0.045 0.005 0 0 0 13.7962
0.05 0.005 0 0 0 11.5236
0.055 0.005 0 0 0 9.71552
0.06 0.005 0 0 0 8.25152
0.065 0.005 0 0 0 7.05165
0.07 0.005 0 0 0 6.06006
0.075 0.005 0 0 0 5.23603
0.08 0.005 0 0 0 4.54875
0.085 0.005 0 0 0 3.97423
0.09 0.005 0 0 0 3.49341
0.095 0.005 0 0 0 3.09092
0.1 0.005 0 0 0 2.75416
0.105 0.005 0 0 0 2.47278
0.11 0.005 0 0 0 2.23818
0.115 0.005 0 0 0 2.04323
0.12 0.005 0 0 0 1.88196
0.125 0.005 0 0 0 1.74939
0.13 0.005 0 0 0 1.64135
0.135 0.005 0 0 0 1.55434
0.14 0.005 0 0 0 1.48544
0.145 0.005 0 0 0 1.43218
0.15 0.005 0 0 0 1.39251
0.155 0.005 0 0 0 1.3647
0.16 0.005 0 0 0 1.34729
0.165 0.005 0 0 0 1.33908
0.17 0.005 0 0 0 1.33905
0.175 0.005 0 0 0 1.34632
0.18 0.005 0 0 0 1.3602
0.185 0.005 0 0 0 1.38007
0.19 0.005 0 0 0 1.40543
0.195 0.005 0 0 0 1.43584
0.2 0.005 0 0 0 1.47094
0.205 0.005 0 0 0 1.51043
0.21 0.005 0 0 0 1.55403
0.215 0.005 0 0 0 1.60152
0.22 0.005 0 0 0 1.65271
0.225 0.005 0 0 0 1.70741
0.23 0.005 0 0 0 1.76548
0.235 0.005 0 0 0 1.82677
0.24 0.005 0 0 0 1.89115
0.245 0.005 0 0 0 1.95851
0.25 0.005 0 0 0 2.02873
0.255 0.005 0 0 0 2.1017
0.26 0.005 0 0 0 2.17732
0.265 0.005 0 0 0 2.25548
0.27 0.005 0 0 0 2.33608
0.275 0.005 0 0 0 2.419
0.28 0.005 0 0 0 2.50414
0.285 0.005 0 0 0 2.59138
0.29 0.005 0 0 0 2.68062
0.295 0.005 0 0 0 2.77174
0.3 0.005 0 0 0 2.8646
0.305 0.005 0 0 0 2.95909
0.31 0.005 0 0 0 3.05507
0.315 0.005 0 0 0 3.1524
0.32 0.005 0 0 0 3.25094
0.325 0.005 0 0 0 3.35055
0.33 0.005 0 0 0 3.45107
0.335 0.005 0 0 0 3.55234
0.34 0.005 0 0 0 3.65421
0.345 0.005 0 0 0 3.7565
0.35 0.005 0 0 0 3.85904
0.355 0.005 0 0 0 3.96165
0.36 0.005 0 0 0 4.06417
0.365 0.005 0 0 0 4.16639
0.37 0.005 0 0 0 4.26813
0.375 0.005 0 0 0 4.3692
0.38 0.005 0 0 0 4.46941
0.385 0.005 0 0 0 4.56856
0.39 0.005 0 0 0 4.66644
0.395 0.005 0 0 0 4.76287
0.4 0.005 0 0 0 4.85762
0.405 0.005 0 0 0 4.95051
0.41 0.005 0 0 0 5.04132
0.415 0.005 0 0 0 5.12985
0.42 0.005 0 0 0 5.21591
0.425 0.005 0 0 0 5.29928
0.43 0.005 0 0 0 5.37976
0.435 0.005 0 0 0 5.45717
0.44 0.005 0 0 0 5.5313
0.445 0.005 0 0 0 5.60195
0.45 0.005 0 0 0 5.66895
0.455 0.005 0 0 0 5.73211
0.46 0.005 0 0 0 5.79125
0.465 0.005 0 0 0 5.84619
0.47 0.005 0 0 0 5.89678
0.475 0.005 0 0 0 5.94284
0.48 0.005 0 0 0 5.98423
0.485 0.005 0 0 0 6.02081
0.49 0.005 0 0 0 6.05243
0.495 0.005 0 0 0 6.07897
0.5 0.005 0 0 0 6.10031
0.505 0.005 0 0 0 6.11634
0.51 0.005 0 0 0 6.12697
0.515 0.005 0 0 0 6.13212
0.52 0.005 0 0 0 6.1317
0.525 0.005 0 0 0 6.12567
0.53 0.005 0 0 0 6.11396
0.535 0.005 0 0 0 6.09654
0.54 0.005 0 0 0 6.0734
0.545 0.005 0 0 0 6.04452
0.55 0.005 0 0 0 6.00991
0.555 0.005 0 0 0 5.96958
0.56 0.005 0 0 0 5.92358
0.565 0.005 0 0 0 5.87196
0.57 0.005 0 0 0 5.81476
0.575 0.005 0 0 0 5.75209
0.58 0.005 0 0 0 5.68402
0.585 0.005 0 0 0 5.61068
0.59 0.005 0 0 0 5.53218
0.595 0.005 0 0 0 5.44866
0.6 0.005 0 0 0 5.36028
0.605 0.005 0 0 0 5.2672
0.61 0.005 0 0 0 5.1696
0.615 0.005 0 0 0 5.06769
0.62 0.005 0 0 0 4.96167
0.625 0.005 0 0 0 4.85175
0.63 0.005 0 0 0 4.73817
0.635 0.005 0 0 0 4.62118
0.64 0.005 0 0 0 4.50102
0.645 0.005 0 0 0 4.37796
0.65 0.005 0 0 0 4.25227
0.655 0.005 0 0 0 4.12423
0.66 0.005 0 0 0 3.99413
0.665 0.005 0 0 0 3.86225
0.67 0.005 0 0 0 3.72888
0.675 0.005 0 0 0 3.59434
0.68 0.005 0 0 0 3.45892
0.685 0.005 0 0 0 3.32292
0.69 0.005 0 0 0 3.18664
0.695 0.005 0 0 0 3.05038
0.7 0.005 0 0 0 2.91444
0.705 0.005 0 0 0 2.77911
0.71 0.005 0 0 0 2.64468
0.715 0.005 0 0 0 2.51144
0.72 0.005 0 0 0 2.37965
0.725 0.005 0 0 0 2.24958
0.73 0.005 0 0 0 2.1215
0.735 0.005 0 0 0 1.99563
0.74 0.005 0 0 0 1.87223
0.745 0.005 0 0 0 1.7515
0.75 0.005 0 0 0 1.63367
0.755 0.005 0 0 0 1.51892
0.76 0.005 0 0 0 1.40743
0.765 0.005 0 0 0 1.29937
0.77 0.005 0 0 0 1.19489
0.775 0.005 0 0 0 1.09412
0.78 0.005 0 0 0 0.997179
0.785 0.005 0 0 0 0.904171
0.79 0.005 0 0 0 0.815178
0.795 0.005 0 0 0 0.730272
0.8 0.005 0 0 0 0.649503
0.805 0.005 0 0 0 0.572908
0.81 0.005 0 0 0 0.500511
0.815 0.005 0 0 0 0.432315
0.82 0.005 0 0 0 0.368315
0.825 0.005 0 0 0 0.308486
0.83 0.005 0 0 0 0.252794
0.835 0.005 0 0 0 0.20119
0.84 0.005 0 0 0 0.153614
0.845 0.005 0 0 0 0.109995
0.85 0.005 0 0 0 0.0702514
0.855 0.005 0 0 0 0.0342919
0.86 0.005 0 0 0 0.00201714
0.865 0.005 0 0 0 -0.0266801
0.87 0.005 0 0 0 -0.051914
0.875 0.005 0 0 0 -0.0738045
0.88 0.005 0 0 0 -0.0924771
0.885 0.005 0 0 0 -0.108062
0.89 0.005 0 0 0 -0.120692
0.895 0.005 0 0 0 -0.130506
0.9 0.005 0 0 0 -0.137644
0.905 0.005 0 0 0 -0.142249
0.91 0.005 0 0 0 -0.144466
0.915 0.005 0 0 0 -0.144445
0.92 0.005 0 0 0 -0.142339
0.925 0.005 0 0 0 -0.138304
0.93 0.005 0 0 0 -0.132501
0.935 0.005 0 0 0 -0.125102
0.94 0.005 0 0 0 -0.116283
0.945 0.005 0 0 0 -0.106236
0.95 0.005 0 0 0 -0.095169
0.955 0.005 0 0 0 -0.0833103
0.96 0.005 0 0 0 -0.0709161
0.965 0.005 0 0 0 -0.0582785
0.97 0.005 0 0 0 -0.0457347
0.975 0.005 0 0 0 -0.0336795
0.98 0.005 0 0 0 -0.0225782
0.985 0.005 0 0 0 -0.0129765
0.99 0.005 0 0 0 -0.00549419
0.995 0.005 0 0 0 -0.000759668
1 0.005 0 0 0 0.000844699
0 0.01 0 0 0.000844699 0
0.005 0.01 0 0 0 -326.272
0.01 0.01 -0.180042 0.0775859 -0.000921601 -44.4049
0.015 0.01 -0.184851 -0.0350082 -0.000775859 9.52784
0.02 0.01 -0.156365 -0.0351417 -0.000571519 19.1152
0.025 0.01 -0.127526 -0.0245796 -0.000424443 18.9894
0.03 0.01 -0.104121 -0.0166592 -0.000325723 16.8242
0.035 0.01 -0.0858971 -0.0116667 -0.000257851 14.4939
0.04 0.01 -0.0716604 -0.00853986 -0.000209056 12.4273
0.045 0.01 -0.0603657 -0.00650115 -0.000172452 10.678
0.05 0.01 -0.0512566 -0.00510079 -0.000144045 9.21131
0.055 0.01 -0.0438074 -0.00409008 -0.000121444 7.97948
0.06 0.01 -0.0376502 -0.00332984 -0.000103144 6.94064
0.065 0.01 -0.0325215 -0.00273932 -8.81456e-05 6.0611
0.07 0.01 -0.0282263 -0.00226952 -7.57508e-05 5.31425
0.075 0.01 -0.0246164 -0.00188915 -6.54504e-05 4.67889
0.08 0.01 -0.0215756 -0.00157726 -5.68593e-05 4.13789
0.085 0.01 -0.0190114 -0.00131916 -4.96778e-05 3.67719
0.09 0.01 -0.0168485 -0.00110413 -4.36676e-05 3.28514
0.095 0.01 -0.015025 -0.000924062 -3.86365e-05 2.95193
0.1 0.01 -0.0134894 -0.000772672 -3.4427e-05 2.66928
0.105 0.01 -0.0121989 -0.000644969 -3.09097e-05 2.43016
0.11 0.01 -0.0111173 -0.00053693 -2.79773e-05 2.22858
0.115 0.01 -0.0102145 -0.000445272 -2.55404e-05 2.0594
0.12 0.01 -0.0094647 -0.000367295 -2.35245e-05 1.91827
0.125 0.01 -0.00884639 -0.00030076 -2.18674e-05 1.80143
0.13 0.01 -0.00834132 -0.000243809 -2.05168e-05 1.7057
0.135 0.01 -0.00793404 -0.000194888 -1.94292e-05 1.62833
0.14 0.01 -0.00761151 -0.000152699 -1.85679e-05 1.56699
0.145 0.01 -0.00736269 -0.000116157 -1.79022e-05 1.51969
0.15 0.01 -0.00717827 -8.43508e-05 -1.74063e-05 1.48473
0.155 0.01 -0.00705036 -5.65165e-05 -1.70587e-05 1.46065
0.16 0.01 -0.00697231 -3.20139e-05 -1.68411e-05 1.44623
0.165 0.01 -0.00693847 -1.03064e-05 -1.67385e-05 1.44039
0.17 0.01 -0.0069441 9.05572e-06 -1.6738e-05 1.44226
0.175 0.01 -0.00698517 2.6449e-05 -1.6829e-05 1.45104
0.18 0.01 -0.00705828 4.21882e-05 -1.70025e-05 1.46611
0.185 0.01 -0.00716054 5.65359e-05 -1.72509e-05 1.48689
0.19 0.01 -0.0072895 6.97107e-05 -1.75678e-05 1.5129
0.195 0.01 -0.00744308 8.18943e-05 -1.7948e-05 1.54374
0.2 0.01 -0.0076195 9.32369e-05 -1.83867e-05 1.57905
0.205 0.01 -0.00781724 0.000103862 -1.88803e-05 1.61853
0.21 0.01 -0.00803497 0.000113873 -1.94254e-05 1.6619
0.215 0.01 -0.00827155 0.00012335 -2.0019e-05 1.70894
0.22 0.01 -0.00852597 0.000132363 -2.06588e-05 1.75944
0.225 0.01 -0.00879734 0.000140964 -2.13426e-05 1.81321
0.23 0.01 -0.00908487 0.000149196 -2.20685e-05 1.87008
0.235 0.01 -0.00938781 0.000157093 -2.28346e-05 1.92991
0.24 0.01 -0.0097055 0.00016468 -2.36394e-05 1.99254
0.245 0.01 -0.0100373 0.000171976 -2.44814e-05 2.05785
0.25 0.01 -0.0103826 0.000178993 -2.53591e-05 2.1257
0.255 0.01 -0.0107409 0.000185741 -2.62713e-05 2.19598
0.26 0.01 -0.0111115 0.000192223 -2.72165e-05 2.26856
0.265 0.01 -0.011494 0.000198442 -2.81935e-05 2.34333
0.27 0.01 -0.0118877 0.000204395 -2.92009e-05 2.42017
0.275 0.01 -0.0122921 0.000210078 -3.02375e-05 2.49895
0.28 0.01 -0.0127066 0.000215485 -3.13017e-05 2.57956
0.285 0.01 -0.0131307 0.00022061 -3.23923e-05 2.66188
0.29 0.01 -0.0135637 0.000225442 -3.35078e-05 2.74579
0.295 0.01 -0.014005 0.000229972 -3.46467e-05 2.83115
0.3 0.01 -0.0144541 0.000234189 -3.58075e-05 2.91783
0.305 0.01 -0.0149101 0.000238081 -3.69886e-05 3.00571
0.31 0.01 -0.0153726 0.000241637 -3.81884e-05 3.09464
0.315 0.01 -0.0158407 0.000244843 -3.9405e-05 3.18449
0.32 0.01 -0.0163138 0.000247687 -4.06368e-05 3.27511
0.325 0.01 -0.0167911 0.000250156 -4.18819e-05 3.36636
0.33 0.01 -0.0172719 0.000252238 -4.31384e-05 3.45808
0.335 0.01 -0.0177554 0.00025392 -4.44043e-05 3.55012
0.34 0.01 -0.0182408 0.00025519 -4.56776e-05 3.64232
0.345 0.01 -0.0187272 0.000256035 -4.69562e-05 3.73453
0.35 0.01 -0.0192139 0.000256444 -4.8238e-05 3.82657
0.355 0.01 -0.0197 0.000256407 -4.95207e-05 3.91828
0.36 0.01 -0.0201845 0.000255913 -5.08021e-05 4.0095
0.365 0.01 -0.0206667 0.000254953 -5.20799e-05 4.10004
0.37 0.01 -0.0211455 0.000253517 -5.33517e-05 4.18975
0.375 0.01 -0.0216202 0.000251598 -5.46151e-05 4.27844
0.38 0.01 -0.0220897 0.000249189 -5.58677e-05 4.36594
0.385 0.01 -0.0225532 0.000246283 -5.7107e-05 4.45208
0.39 0.01 -0.0230096 0.000242877 -5.83306e-05 4.53667
0.395 0.01 -0.0234581 0.000238965 -5.95359e-05 4.61955
0.4 0.01 -0.0238977 0.000234545 -6.07203e-05 4.70053
0.405 0.01 -0.0243275 0.000229615 -6.18814e-05 4.77944
0.41 0.01 -0.0247464 0.000224176 -6.30165e-05 4.85611
0.415 0.01 -0.0251536 0.000218228 -6.41232e-05 4.93036
0.42 0.01 -0.0255482 0.000211772 -6.51989e-05 5.00202
0.425 0.01 -0.0259291 0.000204814 -6.6241e-05 5.07094
0.43 0.01 -0.0262956 0.000197356 -6.72471e-05 5.13693
0.435 0.01 -0.0266467 0.000189407 -6.82147e-05 5.19985
0.44 0.01 -0.0269814 0.000180973 -6.91413e-05 5.25953
0.445 0.01 -0.027299 0.000172063 -7.00245e-05 5.31583
0.45 0.01 -0.0275987 0.000162688 -7.0862e-05 5.36859
0.455 0.01 -0.0278795 0.000152861 -7.16515e-05 5.41767
0.46 0.01 -0.0281407 0.000142593 -7.23907e-05 5.46293
0.465 0.01 -0.0283816 0.0001319 -7.30775e-05 5.50425
0.47 0.01 -0.0286013 0.000120799 -7.37099e-05 5.54149
0.475 0.01 -0.0287993 0.000109307 -7.42857e-05 5.57454
0.48 0.01 -0.0289749 9.74433e-05 -7.4803e-05 5.6033
0.485 0.01 -0.0291273 8.52285e-05 -7.52602e-05 5.62765
0.49 0.01 -0.0292562 7.26848e-05 -7.56555e-05 5.6475
0.495 0.01 -0.0293609 5.98355e-05 -7.59872e-05 5.66277
0.5 0.01 -0.0294409 4.67054e-05 -7.62539e-05 5.67338
0.505 0.01 -0.0294958 3.33208e-05 -7.64544e-05 5.67926
0.51 0.01 -0.0295252 1.9709e-05 -7.65873e-05 5.68035
0.515 0.01 -0.0295288 5.89881e-06 -7.66516e-05 5.6766
0.52 0.01 -0.0295062 -8.08001e-06 -7.66464e-05 5.66798
0.525 0.01 -0.0294574 -2.21964e-05 -7.6571e-05 5.65445
0.53 0.01 -0.029382 -3.64182e-05 -7.64246e-05 5.636
0.535 0.01 -0.0292801 -5.07124e-05 -7.62069e-05 5.61261
0.54 0.01 -0.0291514 -6.5045e-05 -7.59176e-05 5.5843
0.545 0.01 -0.0289962 -7.9381e-05 -7.55566e-05 5.55108
0.55 0.01 -0.0288144 -9.3685e-05 -7.5124e-05 5.51298
0.555 0.01 -0.0286061 -0.000107921 -7.462e-05 5.47002
0.56 0.01 -0.0283717 -0.000122051 -7.4045e-05 5.42228
0.565 0.01 -0.0281113 -0.00013604 -7.33996e-05 5.36979
0.57 0.01 -0.0278254 -0.000149849 -7.26847e-05 5.31264
0.575 0.01 -0.0275143 -0.000163441 -7.19013e-05 5.25091
0.58 0.01 -0.0271784 -0.000176779 -7.10505e-05 5.1847
0.585 0.01 -0.0268184 -0.000189824 -7.01336e-05 5.11411
0.59 0.01 -0.0264349 -0.000202541 -6.91524e-05 5.03927
0.595 0.01 -0.0260285 -0.000214893 -6.81084e-05 4.9603
0.6 0.01 -0.0255999 -0.000226843 -6.70036e-05 4.87734
0.605 0.01 -0.02515 -0.000238356 -6.58401e-05 4.79054
0.61 0.01 -0.0246796 -0.000249399 -6.46202e-05 4.70006
0.615 0.01 -0.0241896 -0.000259939 -6.33463e-05 4.60609
0.62 0.01 -0.023681 -0.000269944 -6.2021e-05 4.50878
0.625 0.01 -0.0231548 -0.000279383 -6.0647e-05 4.40835
0.63 0.01 -0.0226122 -0.000288229 -5.92273e-05 4.30497
0.635 0.01 -0.0220541 -0.000296455 -5.77649e-05 4.19887
0.64 0.01 -0.0214818 -0.000304035 -5.62629e-05 4.09025
0.645 0.01 -0.0208965 -0.000310949 -5.47247e-05 3.97932
0.65 0.01 -0.0202995 -0.000317175 -5.31535e-05 3.86633
0.655 0.01 -0.0196919 -0.000322696 -5.1553e-05 3.75149
0.66 0.01 -0.0190752 -0.000327497 -4.99267e-05 3.63505
0.665 0.01 -0.0184506 -0.000331566 -4.82782e-05 3.51724
0.67 0.01 -0.0178194 -0.000334892 -4.66112e-05 3.3983
0.675 0.01 -0.0171832 -0.00033747 -4.49294e-05 3.27848
0.68 0.01 -0.0165431 -0.000339294 -4.32366e-05 3.15803
0.685 0.01 -0.0159006 -0.000340365 -4.15366e-05 3.03719
0.69 0.01 -0.0152571 -0.000340685 -3.9833e-05 2.9162
0.695 0.01 -0.0146138 -0.000340258 -3.81298e-05 2.79531
0.7 0.01 -0.0139723 -0.000339093 -3.64306e-05 2.67476
0.705 0.01 -0.0133337 -0.000337202 -3.4739e-05 2.5548
0.71 0.01 -0.0126994 -0.000334599 -3.30586e-05 2.43565
0.715 0.01 -0.0120706 -0.0003313 -3.13931e-05 2.31754
0.72 0.01 -0.0114487 -0.000327326 -2.97457e-05 2.2007
0.725 0.01 -0.0108349 -0.000322699 -2.81199e-05 2.08535
0.73 0.01 -0.0102302 -0.000317445 -2.65188e-05 1.9717
0.735 0.01 -0.00963587 -0.000311591 -2.49455e-05 1.85994
0.74 0.01 -0.00905292 -0.000305167 -2.34029e-05 1.75028
0.745 0.01 -0.00848237 -0.000298205 -2.18939e-05 1.64288
0.75 0.01 -0.00792518 -0.00029074 -2.04209e-05 1.53794
0.755 0.01 -0.00738225 -0.000282805 -1.89865e-05 1.43561
0.76 0.01 -0.00685441 -0.000274439 -1.75929e-05 1.33605
0.765 0.01 -0.00634242 -0.00026568 -1.62421e-05 1.23939
0.77 0.01 -0.00584698 -0.000256566 -1.49361e-05 1.14576
0.775 0.01 -0.0053687 -0.000247138 -1.36765e-05 1.05528
0.78 0.01 -0.00490816 -0.000237437 -1.24648e-05 0.968049
0.785 0.01 -0.00446581 -0.000227502 -1.13021e-05 0.884162
0.79 0.01 -0.00404208 -0.000217375 -1.01897e-05 0.803696
0.795 0.01 -0.0036373 -0.000207096 -9.1284e-06 0.726716
0.8 0.01 -0.00325172 -0.000196705 -8.11879e-06 0.653272
0.805 0.01 -0.00288554 -0.00018624 -7.16136e-06 0.583406
0.81 0.01 -0.00253888 -0.000175741 -6.25638e-06 0.517143
0.815 0.01 -0.00221179 -0.000165245 -5.40394e-06 0.454498
0.82 0.01 -0.00190425 -0.000154786 -4.60393e-06 0.395474
0.825 0.01 -0.0016162 -0.0001444 -3.85607e-06 0.340062
0.83 0.01 -0.00134747 -0.000134119 -3.15991e-06 0.288241
0.835 0.01 -0.00109789 -0.000123974 -2.51486e-06 0.23998
0.84 0.01 -0.000867181 -0.000113992 -1.92016e-06 0.195238
0.845 0.01 -0.00065505 -0.000104202 -1.37492e-06 0.153964
0.85 0.01 -0.000461138 -9.46275e-05 -8.78126e-07 0.116097
0.855 0.01 -0.000285045 -8.52912e-05 -4.28631e-07 0.0815695
0.86 0.01 -0.000126329 -7.62133e-05 -2.51961e-08 0.0503044
0.865 0.01 1.54882e-05 -6.74121e-05 3.3352e-07 0.0222176
0.87 0.01 0.00014092 -5.89036e-05 6.48943e-07 -0.00278132
0.875 0.01 0.00025051 -5.07021e-05 9.22575e-07 -0.0247893
0.88 0.01 0.000344827 -4.28197e-05 1.15598e-06 -0.0439087
0.885 0.01 0.000424467 -3.52673e-05 1.35079e-06 -0.0602471
0.89 0.01 0.000490046 -2.80539e-05 1.50867e-06 -0.0739165
0.895 0.01 0.000542198 -2.11877e-05 1.63135e-06 -0.0850336
0.9 0.01 0.000581576 -1.4676e-05 1.72057e-06 -0.093719
0.905 0.01 0.000608851 -8.52578e-06 1.77812e-06 -0.100097
0.91 0.01 0.000624708 -2.74433e-06 1.80584e-06 -0.104297
0.915 0.01 0.000629853 2.66037e-06 1.80558e-06 -0.106452
0.92 0.01 0.000625009 7.67869e-06 1.77925e-06 -0.106699
0.925 0.01 0.000610925 1.22985e-05 1.72881e-06 -0.105182
0.93 0.01 0.000588377 1.6504e-05 1.65628e-06 -0.10205
0.935 0.01 0.00055818 2.02746e-05 1.56378e-06 -0.0974607
0.94 0.01 0.000521194 2.35829e-05 1.45354e-06 -0.0915807
0.945 0.01 0.000478338 2.6393e-05 1.32796e-06 -0.0845885
0.95 0.01 0.000430605 2.86581e-05 1.18962e-06 -0.0766768
0.955 0.01 0.000379084 3.03168e-05 1.04138e-06 -0.0680552
0.96 0.01 0.000324981 3.12904e-05 8.86457e-07 -0.0589542
0.965 0.01 0.000269649 3.14773e-05 7.28485e-07 -0.0496281
0.97 0.01 0.000214621 3.07491e-05 5.71686e-07 -0.0403579
0.975 0.01 0.000161637 2.89458e-05 4.20996e-07 -0.031452
0.98 0.01 0.000112673 2.5879e-05 2.82229e-07 -0.0232406
0.985 0.01 6.99327e-05 2.13552e-05 1.62207e-07 -0.0160564
0.99 0.01 3.57614e-05 1.52711e-05 6.86774e-08 -0.0101843
0.995 0.01 1.23486e-05 7.92362e-06 9.49574e-09 -0.00574489
1 0.01 9.48127e-07 9.49574e-07 -1.05588e-08 -0.0024485
0 0.015 0 0 -0.000758502 0
0.005 0.015 0 0 0 -255.966
0.01 0.015 -0.15285 0.184851 -0.00180042 -79.2592
0.015 0.015 -0.206225 -0.0236771 -0.00184851 -16.6402
0.02 0.015 -0.204564 -0.0573249 -0.00156365 2.31376
0.025 0.015 -0.184548 -0.0522447 -0.00127526 7.92679
0.03 0.015 -0.161043 -0.0416293 -0.00104121 9.25176
0.035 0.015 -0.139038 -0.0324601 -0.000858971 9.1201
0.04 0.015 -0.119817 -0.0255314 -0.000716604 8.4998
0.045 0.015 -0.103416 -0.0204038 -0.000603657 7.74427
0.05 0.015 -0.0895116 -0.0165583 -0.000512566 6.98687
0.055 0.015 -0.0777271 -0.0136064 -0.000438074 6.27728
0.06 0.015 -0.0677233 -0.0112859 -0.000376502 5.63204
0.065 0.015 -0.0592159 -0.00942389 -0.000325215 5.05424
0.07 0.015 -0.051971 -0.00790513 -0.000282263 4.54147
0.075 0.015 -0.0457964 -0.00665072 -0.000246164 4.08919
0.08 0.015 -0.0405332 -0.00560495 -0.000215756 3.69217
0.085 0.015 -0.0360487 -0.00472711 -0.000190114 3.34511
0.09 0.015 -0.0322314 -0.00398644 -0.000168485 3.04294
0.095 0.015 -0.0289869 -0.00335909 -0.000150249 2.78093
0.1 0.015 -0.0262351 -0.00282607 -0.000134894 2.55472
0.105 0.015 -0.0239077 -0.00237204 -0.000121988 2.36037
0.11 0.015 -0.0219463 -0.00198437 -0.000111173 2.1943
0.115 0.015 -0.0203011 -0.00165263 -0.000102145 2.05332
0.12 0.015 -0.0189294 -0.00136807 -9.46468e-05 1.93459
0.125 0.015 -0.0177949 -0.00112336 -8.84638e-05 1.83556
0.13 0.015 -0.0168664 -0.000912341 -8.34131e-05 1.754
0.135 0.015 -0.0161173 -0.000729799 -7.93403e-05 1.68793
0.14 0.015 -0.0155247 -0.000571334 -7.61149e-05 1.63563
0.145 0.015 -0.0150694 -0.000433223 -7.36268e-05 1.59557
0.15 0.015 -0.0147348 -0.000312317 -7.17826e-05 1.56643
0.155 0.015 -0.0145067 -0.000205953 -7.05035e-05 1.54705
0.16 0.015 -0.0143732 -0.000111879 -6.97229e-05 1.53641
0.165 0.015 -0.0143239 -2.81921e-05 -6.93846e-05 1.53365
0.17 0.015 -0.0143501 4.67127e-05 -6.94409e-05 1.538
0.175 0.015 -0.0144445 0.000114189 -6.98516e-05 1.54879
0.18 0.015 -0.0146005 0.000175376 -7.05827e-05 1.56545
0.185 0.015 -0.0148129 0.000231231 -7.16053e-05 1.58747
0.19 0.015 -0.0150768 0.000282553 -7.28949e-05 1.61442
0.195 0.015 -0.0153885 0.000330012 -7.44307e-05 1.64591
0.2 0.015 -0.0157443 0.000374165 -7.61949e-05 1.68161
0.205 0.015 -0.0161414 0.000415473 -7.81723e-05 1.72121
0.21 0.015 -0.0165771 0.000454318 -8.03496e-05 1.76446
0.215 0.015 -0.0170492 0.000491009 -8.27154e-05 1.81111
0.22 0.015 -0.0175556 0.000525803 -8.52596e-05 1.86096
0.225 0.015 -0.0180945 0.000558903 -8.79734e-05 1.91382
0.23 0.015 -0.0186644 0.000590473 -9.08486e-05 1.9695
0.235 0.015 -0.0192636 0.000620641 -9.38781e-05 2.02785
0.24 0.015 -0.0198908 0.000649505 -9.7055e-05 2.0887
0.245 0.015 -0.0205446 0.000677138 -0.000100373 2.15192
0.25 0.015 -0.0212239 0.000703594 -0.000103826 2.21737
0.255 0.015 -0.0219274 0.000728905 -0.000107409 2.2849
0.26 0.015 -0.0226539 0.000753092 -0.000111115 2.35438
0.265 0.015 -0.0234023 0.000776161 -0.00011494 2.4257
0.27 0.015 -0.0241713 0.000798109 -0.000118877 2.4987
0.275 0.015 -0.0249598 0.000818924 -0.000122921 2.57328
0.28 0.015 -0.0257666 0.000838584 -0.000127066 2.64929
0.285 0.015 -0.0265905 0.000857066 -0.000131307 2.72661
0.29 0.015 -0.0274302 0.000874337 -0.000135637 2.8051
0.295 0.015 -0.0282846 0.000890362 -0.00014005 2.88464
0.3 0.015 -0.0291523 0.000905105 -0.000144541 2.96508
0.305 0.015 -0.0300319 0.000918524 -0.000149101 3.04629
0.31 0.015 -0.0309221 0.000930578 -0.000153726 3.12812
0.315 0.015 -0.0318216 0.000941224 -0.000158407 3.21044
0.32 0.015 -0.0327288 0.000950417 -0.000163138 3.2931
0.325 0.015 -0.0336423 0.000958115 -0.000167911 3.37596
0.33 0.015 -0.0345607 0.000964276 -0.000172719 3.45887
0.335 0.015 -0.0354823 0.000968855 -0.000177554 3.54167
0.34 0.015 -0.0364056 0.000971814 -0.000182408 3.62422
0.345 0.015 -0.0373289 0.000973113 -0.000187273 3.70636
0.35 0.015 -0.0382508 0.000972715 -0.000192139 3.78794
0.355 0.015 -0.0391694 0.000970586 -0.000197 3.86881
0.36 0.015 -0.0400831 0.000966693 -0.000201845 3.9488
0.365 0.015 -0.0409901 0.000961008 -0.000206667 4.02777
0.37 0.015 -0.0418889 0.000953505 -0.000211456 4.10555
0.375 0.015 -0.0427776 0.000944161 -0.000216202 4.182
0.38 0.015 -0.0436544 0.000932958 -0.000220897 4.25696
0.385 0.015 -0.0445177 0.00091988 -0.000225532 4.33026
0.39 0.015 -0.0453656 0.000904917 -0.000230097 4.40178
0.395 0.015 -0.0461964 0.000888063 -0.000234581 4.47134
0.4 0.015 -0.0470083 0.000869314 -0.000238977 4.5388
0.405 0.015 -0.0477996 0.000848672 -0.000243275 4.60402
0.41 0.015 -0.0485685 0.000826145 -0.000247464 4.66686
0.415 0.015 -0.0493133 0.000801743 -0.000251537 4.72717
0.42 0.015 -0.0500323 0.000775482 -0.000255482 4.78482
0.425 0.015 -0.0507239 0.000747384 -0.000259292 4.83967
0.43 0.015 -0.0513863 0.000717474 -0.000262956 4.8916
0.435 0.015 -0.052018 0.000685783 -0.000266467 4.94048
0.44 0.015 -0.0526173 0.000652347 -0.000269815 4.9862
0.445 0.015 -0.0531828 0.000617206 -0.000272991 5.02863
0.45 0.015 -0.053713 0.000580406 -0.000275987 5.06767
0.455 0.015 -0.0542064 0.000541999 -0.000278795 5.10322
0.46 0.015 -0.0546617 0.00050204 -0.000281407 5.13518
0.465 0.015 -0.0550775 0.00046059 -0.000283816 5.16346
0.47 0.015 -0.0554525 0.000417715 -0.000286014 5.18798
0.475 0.015 -0.0557857 0.000373486 -0.000287994 5.20865
0.48 0.015 -0.0560758 0.00032798 -0.000289749 5.22541
0.485 0.015 -0.0563219 0.000281276 -0.000291274 5.23819
0.49 0.015 -0.056523 0.00023346 -0.000292562 5.24694
0.495 0.015 -0.0566781 0.000184622 -0.000293609 5.25161
0.5 0.015 -0.0567866 0.000134858 -0.000294409 5.25217
0.505 0.015 -0.0568477 8.42645e-05 -0.000294958 5.24856
0.51 0.015 -0.0568608 3.29462e-05 -0.000295252 5.24079
0.515 0.015 -0.0568255 -1.89902e-05 -0.000295288 5.22881
0.52 0.015 -0.0567413 -7.14336e-05 -0.000295063 5.21264
0.525 0.015 -0.0566079 -0.00012427 -0.000294574 5.19227
0.53 0.015 -0.0564252 -0.00017738 -0.000293821 5.16771
0.535 0.015 -0.056193 -0.000230645 -0.000292801 5.13897
0.54 0.015 -0.0559114 -0.000283939 -0.000291515 5.10609
0.545 0.015 -0.0555805 -0.000337137 -0.000289962 5.0691
0.55 0.015 -0.0552006 -0.00039011 -0.000288144 5.02804
0.555 0.015 -0.0547721 -0.000442729 -0.000286062 4.98297
0.56 0.015 -0.0542954 -0.000494861 -0.000283718 4.93395
0.565 0.015 -0.0537711 -0.000546375 -0.000281114 4.88105
0.57 0.015 -0.0532 -0.000597137 -0.000278254 4.82434
0.575 0.015 -0.0525829 -0.000647015 -0.000275143 4.76391
0.58 0.015 -0.0519208 -0.000695876 -0.000271785 4.69987
0.585 0.015 -0.0512146 -0.000743588 -0.000268185 4.6323
0.59 0.015 -0.0504657 -0.000790022 -0.00026435 4.56133
0.595 0.015 -0.0496753 -0.00083505 -0.000260285 4.48706
0.6 0.015 -0.0488447 -0.000878546 -0.000256 4.40964
0.605 0.015 -0.0479756 -0.000920389 -0.000251501 4.32918
0.61 0.015 -0.0470695 -0.000960458 -0.000246797 4.24584
0.615 0.015 -0.0461281 -0.000998641 -0.000241897 4.15975
0.62 0.015 -0.0451532 -0.00103483 -0.000236811 4.07108
0.625 0.015 -0.0441468 -0.00106891 -0.000231549 3.97997
0.63 0.015 -0.0431109 -0.0011008 -0.000226122 3.8866
0.635 0.015 -0.0420474 -0.0011304 -0.000220541 3.79113
0.64 0.015 -0.0409585 -0.00115763 -0.000214819 3.69374
0.645 0.015 -0.0398465 -0.00118241 -0.000208966 3.59461
0.65 0.015 -0.0387136 -0.00120466 -0.000202995 3.49391
0.655 0.015 -0.0375621 -0.00122434 -0.00019692 3.39185
0.66 0.015 -0.0363945 -0.00124139 -0.000190752 3.28859
0.665 0.015 -0.035213 -0.00125577 -0.000184506 3.18434
0.67 0.015 -0.0340202 -0.00126744 -0.000178195 3.07928
0.675 0.015 -0.0328184 -0.00127639 -0.000171832 2.97362
0.68 0.015 -0.0316103 -0.0012826 -0.000165431 2.86754
0.685 0.015 -0.0303982 -0.00128608 -0.000159007 2.76123
0.69 0.015 -0.0291846 -0.00128682 -0.000152571 2.6549
0.695 0.015 -0.027972 -0.00128486 -0.000146139 2.54873
0.7 0.015 -0.0267628 -0.00128021 -0.000139723 2.44292
0.705 0.015 -0.0255594 -0.00127293 -0.000133337 2.33764
0.71 0.015 -0.0243643 -0.00126305 -0.000126994 2.2331
0.715 0.015 -0.0231796 -0.00125065 -0.000120707 2.12946
0.72 0.015 -0.0220077 -0.00123579 -0.000114488 2.02691
0.725 0.015 -0.0208507 -0.00121856 -0.000108349 1.92562
0.73 0.015 -0.0197108 -0.00119904 -0.000102302 1.82575
0.735 0.015 -0.01859 -0.00117732 -9.63589e-05 1.72747
0.74 0.015 -0.0174902 -0.00115352 -9.05294e-05 1.63094
0.745 0.015 -0.0164134 -0.00112776 -8.48239e-05 1.53629
0.75 0.015 -0.0153612 -0.00110014 -7.9252e-05 1.44368
0.755 0.015 -0.0143352 -0.00107079 -7.38227e-05 1.35323
0.76 0.015 -0.0133371 -0.00103985 -6.85442e-05 1.26508
0.765 0.015 -0.0123682 -0.00100745 -6.34243e-05 1.17934
0.77 0.015 -0.0114299 -0.000973728 -5.84699e-05 1.09611
0.775 0.015 -0.0105232 -0.000938831 -5.36871e-05 1.0155
0.78 0.015 -0.00964916 -0.0009029 -4.90816e-05 0.937595
0.785 0.015 -0.00880879 -0.000866083 -4.46582e-05 0.862477
0.79 0.015 -0.00800282 -0.000828524 -4.04209e-05 0.790217
0.795 0.015 -0.0072319 -0.000790368 -3.6373e-05 0.720876
0.8 0.015 -0.00649654 -0.00075176 -3.25172e-05 0.654504
0.805 0.015 -0.00579715 -0.000712841 -2.88554e-05 0.591143
0.81 0.015 -0.00513397 -0.000673751 -2.53888e-05 0.530825
0.815 0.015 -0.00450716 -0.000634624 -2.21179e-05 0.473571
0.82 0.015 -0.00391672 -0.000595592 -1.90425e-05 0.419393
0.825 0.015 -0.00336257 -0.000556779 -1.61619e-05 0.368294
0.83 0.015 -0.00284449 -0.000518307 -1.34747e-05 0.320269
0.835 0.015 -0.00236216 -0.000480289 -1.09788e-05 0.2753