Title=" Lid Driven Flow"
VARIABLES="X","Y","U","V","psi","xi"
ZONE T= "BOX", I= 201, J=201, F=POINT
0 0 0 0 0.00338136 0
0.005 0 0 0 0 0
0.01 0 0 0 0 0
0.015 0 0 0 0 161.891
0.02 0 0 0 0 176.122
0.025 0 0 0 0 155.599
0.03 0 0 0 0 133.204
0.035 0 0 0 0 115.681
0.04 0 0 0 0 102.824
0.045 0 0 0 0 93.2888
0.05 0 0 0 0 85.966
0.055 0 0 0 0 80.1225
0.06 0 0 0 0 75.2996
0.065 0 0 0 0 71.2084
0.07 0 0 0 0 67.6612
0.075 0 0 0 0 64.5314
0.08 0 0 0 0 61.7305
0.085 0 0 0 0 59.1951
0.09 0 0 0 0 56.8782
0.095 0 0 0 0 54.7446
0.1 0 0 0 0 52.7673
0.105 0 0 0 0 50.9252
0.11 0 0 0 0 49.2016
0.115 0 0 0 0 47.5832
0.12 0 0 0 0 46.0589
0.125 0 0 0 0 44.6198
0.13 0 0 0 0 43.2581
0.135 0 0 0 0 41.9674
0.14 0 0 0 0 40.742
0.145 0 0 0 0 39.5771
0.15 0 0 0 0 38.4682
0.155 0 0 0 0 37.4116
0.16 0 0 0 0 36.4036
0.165 0 0 0 0 35.4411
0.17 0 0 0 0 34.5211
0.175 0 0 0 0 33.6409
0.18 0 0 0 0 32.7979
0.185 0 0 0 0 31.9899
0.19 0 0 0 0 31.2145
0.195 0 0 0 0 30.4697
0.2 0 0 0 0 29.7536
0.205 0 0 0 0 29.0643
0.21 0 0 0 0 28.4001
0.215 0 0 0 0 27.7594
0.22 0 0 0 0 27.1405
0.225 0 0 0 0 26.5421
0.23 0 0 0 0 25.9627
0.235 0 0 0 0 25.4011
0.24 0 0 0 0 24.8559
0.245 0 0 0 0 24.3262
0.25 0 0 0 0 23.8106
0.255 0 0 0 0 23.3083
0.26 0 0 0 0 22.8183
0.265 0 0 0 0 22.3396
0.27 0 0 0 0 21.8713
0.275 0 0 0 0 21.4127
0.28 0 0 0 0 20.963
0.285 0 0 0 0 20.5215
0.29 0 0 0 0 20.0876
0.295 0 0 0 0 19.6606
0.3 0 0 0 0 19.24
0.305 0 0 0 0 18.8252
0.31 0 0 0 0 18.4158
0.315 0 0 0 0 18.0114
0.32 0 0 0 0 17.6114
0.325 0 0 0 0 17.2156
0.33 0 0 0 0 16.8237
0.335 0 0 0 0 16.4352
0.34 0 0 0 0 16.05
0.345 0 0 0 0 15.6679
0.35 0 0 0 0 15.2886
0.355 0 0 0 0 14.912
0.36 0 0 0 0 14.5378
0.365 0 0 0 0 14.1661
0.37 0 0 0 0 13.7967
0.375 0 0 0 0 13.4296
0.38 0 0 0 0 13.0648
0.385 0 0 0 0 12.7021
0.39 0 0 0 0 12.3417
0.395 0 0 0 0 11.9835
0.4 0 0 0 0 11.6276
0.405 0 0 0 0 11.2742
0.41 0 0 0 0 10.9232
0.415 0 0 0 0 10.5748
0.42 0 0 0 0 10.2291
0.425 0 0 0 0 9.88633
0.43 0 0 0 0 9.54652
0.435 0 0 0 0 9.20989
0.44 0 0 0 0 8.8766
0.445 0 0 0 0 8.54684
0.45 0 0 0 0 8.22081
0.455 0 0 0 0 7.8987
0.46 0 0 0 0 7.58073
0.465 0 0 0 0 7.26709
0.47 0 0 0 0 6.958
0.475 0 0 0 0 6.65367
0.48 0 0 0 0 6.35431
0.485 0 0 0 0 6.06012
0.49 0 0 0 0 5.77132
0.495 0 0 0 0 5.48809
0.5 0 0 0 0 5.21064
0.505 0 0 0 0 4.93915
0.51 0 0 0 0 4.67378
0.515 0 0 0 0 4.41472
0.52 0 0 0 0 4.1621
0.525 0 0 0 0 3.91607
0.53 0 0 0 0 3.67676
0.535 0 0 0 0 3.44428
0.54 0 0 0 0 3.21873
0.545 0 0 0 0 3.0002
0.55 0 0 0 0 2.78874
0.555 0 0 0 0 2.58442
0.56 0 0 0 0 2.38727
0.565 0 0 0 0 2.19729
0.57 0 0 0 0 2.0145
0.575 0 0 0 0 1.83889
0.58 0 0 0 0 1.67041
0.585 0 0 0 0 1.50903
0.59 0 0 0 0 1.35468
0.595 0 0 0 0 1.20728
0.6 0 0 0 0 1.06675
0.605 0 0 0 0 0.932976
0.61 0 0 0 0 0.805851
0.615 0 0 0 0 0.685243
0.62 0 0 0 0 0.571016
0.625 0 0 0 0 0.463021
0.63 0 0 0 0 0.361103
0.635 0 0 0 0 0.265097
0.64 0 0 0 0 0.174832
0.645 0 0 0 0 0.0901325
0.65 0 0 0 0 0.0108172
0.655 0 0 0 0 -0.0632991
0.66 0 0 0 0 -0.132404
0.665 0 0 0 0 -0.196689
0.67 0 0 0 0 -0.256346
0.675 0 0 0 0 -0.311568
0.68 0 0 0 0 -0.362548
0.685 0 0 0 0 -0.409481
0.69 0 0 0 0 -0.452559
0.695 0 0 0 0 -0.491977
0.7 0 0 0 0 -0.527925
0.705 0 0 0 0 -0.560596
0.71 0 0 0 0 -0.590179
0.715 0 0 0 0 -0.616861
0.72 0 0 0 0 -0.640828
0.725 0 0 0 0 -0.662265
0.73 0 0 0 0 -0.68135
0.735 0 0 0 0 -0.69826
0.74 0 0 0 0 -0.713167
0.745 0 0 0 0 -0.726236
0.75 0 0 0 0 -0.737627
0.755 0 0 0 0 -0.747489
0.76 0 0 0 0 -0.755964
0.765 0 0 0 0 -0.763183
0.77 0 0 0 0 -0.769263
0.775 0 0 0 0 -0.77431
0.78 0 0 0 0 -0.778411
0.785 0 0 0 0 -0.781642
0.79 0 0 0 0 -0.784059
0.795 0 0 0 0 -0.7857
0.8 0 0 0 0 -0.786587
0.805 0 0 0 0 -0.786723
0.81 0 0 0 0 -0.786093
0.815 0 0 0 0 -0.784665
0.82 0 0 0 0 -0.782391
0.825 0 0 0 0 -0.779207
0.83 0 0 0 0 -0.775036
0.835 0 0 0 0 -0.769792
0.84 0 0 0 0 -0.763376
0.845 0 0 0 0 -0.755686
0.85 0 0 0 0 -0.746616
0.855 0 0 0 0 -0.736057
0.86 0 0 0 0 -0.723905
0.865 0 0 0 0 -0.710062
0.87 0 0 0 0 -0.69444
0.875 0 0 0 0 -0.676961
0.88 0 0 0 0 -0.657568
0.885 0 0 0 0 -0.63622
0.89 0 0 0 0 -0.612902
0.895 0 0 0 0 -0.587621
0.9 0 0 0 0 -0.560419
0.905 0 0 0 0 -0.531364
0.91 0 0 0 0 -0.50056
0.915 0 0 0 0 -0.468149
0.92 0 0 0 0 -0.434308
0.925 0 0 0 0 -0.399253
0.93 0 0 0 0 -0.36324
0.935 0 0 0 0 -0.326567
0.94 0 0 0 0 -0.289569
0.945 0 0 0 0 -0.252625
0.95 0 0 0 0 -0.216153
0.955 0 0 0 0 -0.180612
0.96 0 0 0 0 -0.146501
0.965 0 0 0 0 -0.114357
0.97 0 0 0 0 -0.0847582
0.975 0 0 0 0 -0.0583138
0.98 0 0 0 0 -0.0356608
0.985 0 0 0 0 -0.0174421
0.99 0 0 0 0 -0.00425812
0.995 0 0 0 0 0.00344676
1 0 0 0 0 0.00565299
0 0.005 0 0 0 0
0.005 0.005 0 0 0 0
0.01 0.005 0 0 0 73.7282
0.015 0.005 0 0 0 62.0731
0.02 0.005 0 0 0 45.7318
0.025 0.005 0 0 0 33.9692
0.03 0.005 0 0 0 26.071
0.035 0.005 0 0 0 20.6365
0.04 0.005 0 0 0 16.7252
0.045 0.005 0 0 0 13.7873
0.05 0.005 0 0 0 11.5044
0.055 0.005 0 0 0 9.68616
0.06 0.005 0 0 0 8.21264
0.065 0.005 0 0 0 7.00427
0.07 0.005 0 0 0 6.00543
0.075 0.005 0 0 0 5.17543
0.08 0.005 0 0 0 4.48345
0.085 0.005 0 0 0 3.90542
0.09 0.005 0 0 0 3.42218
0.095 0.005 0 0 0 3.01819
0.1 0.005 0 0 0 2.68074
0.105 0.005 0 0 0 2.39932
0.11 0.005 0 0 0 2.16524
0.115 0.005 0 0 0 1.97122
0.12 0.005 0 0 0 1.81121
0.125 0.005 0 0 0 1.68015
0.13 0.005 0 0 0 1.57379
0.135 0.005 0 0 0 1.48859
0.14 0.005 0 0 0 1.42156
0.145 0.005 0 0 0 1.37022
0.15 0.005 0 0 0 1.33249
0.155 0.005 0 0 0 1.3066
0.16 0.005 0 0 0 1.29111
0.165 0.005 0 0 0 1.2848
0.17 0.005 0 0 0 1.28663
0.175 0.005 0 0 0 1.29576
0.18 0.005 0 0 0 1.31147
0.185 0.005 0 0 0 1.33316
0.19 0.005 0 0 0 1.36033
0.195 0.005 0 0 0 1.39257
0.2 0.005 0 0 0 1.4295
0.205 0.005 0 0 0 1.47085
0.21 0.005 0 0 0 1.51634
0.215 0.005 0 0 0 1.56577
0.22 0.005 0 0 0 1.61894
0.225 0.005 0 0 0 1.67569
0.23 0.005 0 0 0 1.73587
0.235 0.005 0 0 0 1.79935
0.24 0.005 0 0 0 1.86601
0.245 0.005 0 0 0 1.93573
0.25 0.005 0 0 0 2.00841
0.255 0.005 0 0 0 2.08395
0.26 0.005 0 0 0 2.16224
0.265 0.005 0 0 0 2.24319
0.27 0.005 0 0 0 2.32669
0.275 0.005 0 0 0 2.41264
0.28 0.005 0 0 0 2.50093
0.285 0.005 0 0 0 2.59146
0.29 0.005 0 0 0 2.68411
0.295 0.005 0 0 0 2.77877
0.3 0.005 0 0 0 2.87531
0.305 0.005 0 0 0 2.97362
0.31 0.005 0 0 0 3.07356
0.315 0.005 0 0 0 3.17498
0.32 0.005 0 0 0 3.27776
0.325 0.005 0 0 0 3.38174
0.33 0.005 0 0 0 3.48677
0.335 0.005 0 0 0 3.59269
0.34 0.005 0 0 0 3.69934
0.345 0.005 0 0 0 3.80655
0.35 0.005 0 0 0 3.91413
0.355 0.005 0 0 0 4.02192
0.36 0.005 0 0 0 4.12973
0.365 0.005 0 0 0 4.23737
0.37 0.005 0 0 0 4.34465
0.375 0.005 0 0 0 4.45137
0.38 0.005 0 0 0 4.55733
0.385 0.005 0 0 0 4.66233
0.39 0.005 0 0 0 4.76616
0.395 0.005 0 0 0 4.86861
0.4 0.005 0 0 0 4.96947
0.405 0.005 0 0 0 5.06854
0.41 0.005 0 0 0 5.16559
0.415 0.005 0 0 0 5.26043
0.42 0.005 0 0 0 5.35282
0.425 0.005 0 0 0 5.44257
0.43 0.005 0 0 0 5.52946
0.435 0.005 0 0 0 5.61327
0.44 0.005 0 0 0 5.69382
0.445 0.005 0 0 0 5.77088
0.45 0.005 0 0 0 5.84427
0.455 0.005 0 0 0 5.91377
0.46 0.005 0 0 0 5.97921
0.465 0.005 0 0 0 6.04039
0.47 0.005 0 0 0 6.09713
0.475 0.005 0 0 0 6.14926
0.48 0.005 0 0 0 6.19661
0.485 0.005 0 0 0 6.23903
0.49 0.005 0 0 0 6.27634
0.495 0.005 0 0 0 6.30843
0.5 0.005 0 0 0 6.33514
0.505 0.005 0 0 0 6.35636
0.51 0.005 0 0 0 6.37198
0.515 0.005 0 0 0 6.38189
0.52 0.005 0 0 0 6.386
0.525 0.005 0 0 0 6.38423
0.53 0.005 0 0 0 6.37652
0.535 0.005 0 0 0 6.36282
0.54 0.005 0 0 0 6.34308
0.545 0.005 0 0 0 6.31729
0.55 0.005 0 0 0 6.28543
0.555 0.005 0 0 0 6.24751
0.56 0.005 0 0 0 6.20354
0.565 0.005 0 0 0 6.15357
0.57 0.005 0 0 0 6.09765
0.575 0.005 0 0 0 6.03584
0.58 0.005 0 0 0 5.96822
0.585 0.005 0 0 0 5.8949
0.59 0.005 0 0 0 5.81599
0.595 0.005 0 0 0 5.73163
0.6 0.005 0 0 0 5.64195
0.605 0.005 0 0 0 5.54713
0.61 0.005 0 0 0 5.44734
0.615 0.005 0 0 0 5.34278
0.62 0.005 0 0 0 5.23365
0.625 0.005 0 0 0 5.12018
0.63 0.005 0 0 0 5.00261
0.635 0.005 0 0 0 4.88118
0.64 0.005 0 0 0 4.75616
0.645 0.005 0 0 0 4.62781
0.65 0.005 0 0 0 4.49643
0.655 0.005 0 0 0 4.36231
0.66 0.005 0 0 0 4.22574
0.665 0.005 0 0 0 4.08704
0.67 0.005 0 0 0 3.94652
0.675 0.005 0 0 0 3.8045
0.68 0.005 0 0 0 3.66131
0.685 0.005 0 0 0 3.51728
0.69 0.005 0 0 0 3.37273
0.695 0.005 0 0 0 3.22799
0.7 0.005 0 0 0 3.08338
0.705 0.005 0 0 0 2.93924
0.71 0.005 0 0 0 2.79588
0.715 0.005 0 0 0 2.65362
0.72 0.005 0 0 0 2.51276
0.725 0.005 0 0 0 2.3736
0.73 0.005 0 0 0 2.23643
0.735 0.005 0 0 0 2.10154
0.74 0.005 0 0 0 1.96918
0.745 0.005 0 0 0 1.83961
0.75 0.005 0 0 0 1.71307
0.755 0.005 0 0 0 1.58978
0.76 0.005 0 0 0 1.46996
0.765 0.005 0 0 0 1.3538
0.77 0.005 0 0 0 1.24148
0.775 0.005 0 0 0 1.13314
0.78 0.005 0 0 0 1.02894
0.785 0.005 0 0 0 0.928996
0.79 0.005 0 0 0 0.833408
0.795 0.005 0 0 0 0.742262
0.8 0.005 0 0 0 0.655627
0.805 0.005 0 0 0 0.573549
0.81 0.005 0 0 0 0.496061
0.815 0.005 0 0 0 0.423174
0.82 0.005 0 0 0 0.354885
0.825 0.005 0 0 0 0.291173
0.83 0.005 0 0 0 0.232002
0.835 0.005 0 0 0 0.177322
0.84 0.005 0 0 0 0.127067
0.845 0.005 0 0 0 0.0811591
0.85 0.005 0 0 0 0.0395079
0.855 0.005 0 0 0 0.00201182
0.86 0.005 0 0 0 -0.0314408
0.865 0.005 0 0 0 -0.0609709
0.87 0.005 0 0 0 -0.0867074
0.875 0.005 0 0 0 -0.108787
0.88 0.005 0 0 0 -0.127351
0.885 0.005 0 0 0 -0.142549
0.89 0.005 0 0 0 -0.154532
0.895 0.005 0 0 0 -0.163457
0.9 0.005 0 0 0 -0.169484
0.905 0.005 0 0 0 -0.172775
0.91 0.005 0 0 0 -0.173499
0.915 0.005 0 0 0 -0.171823
0.92 0.005 0 0 0 -0.16792
0.925 0.005 0 0 0 -0.16197
0.93 0.005 0 0 0 -0.154156
0.935 0.005 0 0 0 -0.144669
0.94 0.005 0 0 0 -0.133712
0.945 0.005 0 0 0 -0.121501
0.95 0.005 0 0 0 -0.10827
0.955 0.005 0 0 0 -0.0942773
0.96 0.005 0 0 0 -0.079812
0.965 0.005 0 0 0 -0.0652021
0.97 0.005 0 0 0 -0.0508263
0.975 0.005 0 0 0 -0.0371259
0.98 0.005 0 0 0 -0.0246183
0.985 0.005 0 0 0 -0.013906
0.99 0.005 0 0 0 -0.0056645
0.995 0.005 0 0 0 -0.000561702
1 0.005 0 0 0 0.00103882
0 0.01 0 0 0.00103882 0
0.005 0.01 0 0 0 -326.272
0.01 0.01 -0.180047 0.0775914 -0.000921603 -44.4011
0.015 0.01 -0.184871 -0.0349955 -0.000775914 9.53204
0.02 0.01 -0.156401 -0.0351299 -0.000571647 19.1181
0.025 0.01 -0.12757 -0.024576 -0.000424615 18.9908
0.03 0.01 -0.104156 -0.0166659 -0.000325888 16.8234
0.035 0.01 -0.0859115 -0.0116823 -0.000257956 14.4898
0.04 0.01 -0.0716424 -0.00856148 -0.000209065 12.4184
0.045 0.01 -0.0603084 -0.00652596 -0.000172341 10.6636
0.05 0.01 -0.051157 -0.00512641 -0.000143805 9.19064
0.055 0.01 -0.0436655 -0.00411475 -0.000121077 7.95242
0.06 0.01 -0.0374685 -0.00335236 -0.000102658 6.90735
0.065 0.01 -0.0323039 -0.00275901 -8.75534e-05 6.02203
0.07 0.01 -0.0279776 -0.00228605 -7.50678e-05 5.27002
0.075 0.01 -0.0243416 -0.00190247 -6.46928e-05 4.63023
0.08 0.01 -0.0212801 -0.00158751 -5.60431e-05 4.08557
0.085 0.01 -0.0187001 -0.00132658 -4.88178e-05 3.62199
0.09 0.01 -0.0165258 -0.00110904 -4.27772e-05 3.22778
0.095 0.01 -0.014695 -0.000926801 -3.77274e-05 2.89309
0.1 0.01 -0.0131557 -0.000773583 -3.35092e-05 2.60956
0.105 0.01 -0.0118644 -0.000644376 -2.99915e-05 2.37009
0.11 0.01 -0.0107845 -0.00053513 -2.70654e-05 2.16861
0.115 0.01 -0.00988533 -0.000442527 -2.46402e-05 1.99992
0.12 0.01 -0.00914081 -0.000363832 -2.26401e-05 1.85959
0.125 0.01 -0.008529 -0.000296771 -2.10019e-05 1.7438
0.13 0.01 -0.00803133 -0.00023945 -1.96724e-05 1.64932
0.135 0.01 -0.00763213 -0.000190287 -1.86073e-05 1.57335
0.14 0.01 -0.00731815 -0.000147955 -1.77695e-05 1.51354
0.145 0.01 -0.00707819 -0.000111345 -1.71278e-05 1.46786
0.15 0.01 -0.00690282 -7.95247e-05 -1.6656e-05 1.43457
0.155 0.01 -0.00678406 -5.1713e-05 -1.63325e-05 1.41222
0.16 0.01 -0.0067152 -2.72552e-05 -1.61389e-05 1.39955
0.165 0.01 -0.00669056 -5.60252e-06 -1.60599e-05 1.3955
0.17 0.01 -0.00670538 1.37043e-05 -1.60829e-05 1.39917
0.175 0.01 -0.00675562 3.10494e-05 -1.6197e-05 1.40978
0.18 0.01 -0.00683791 4.67531e-05 -1.63933e-05 1.42669
0.185 0.01 -0.00694937 6.10823e-05 -1.66645e-05 1.44933
0.19 0.01 -0.00708758 7.42586e-05 -1.70041e-05 1.47723
0.195 0.01 -0.0072505 8.64658e-05 -1.74071e-05 1.50999
0.2 0.01 -0.00743638 9.7855e-05 -1.78688e-05 1.54725
0.205 0.01 -0.00764373 0.000108551 -1.83856e-05 1.58872
0.21 0.01 -0.00787129 0.000118655 -1.89543e-05 1.63414
0.215 0.01 -0.00811793 0.000128249 -1.95721e-05 1.68327
0.22 0.01 -0.00838269 0.000137401 -2.02368e-05 1.73592
0.225 0.01 -0.00866472 0.000146163 -2.09461e-05 1.79191
0.23 0.01 -0.00896326 0.000154576 -2.16984e-05 1.85108
0.235 0.01 -0.0092776 0.000162673 -2.24919e-05 1.91328
0.24 0.01 -0.00960711 0.000170478 -2.33251e-05 1.97837
0.245 0.01 -0.00995119 0.000178008 -2.41967e-05 2.04622
0.25 0.01 -0.0103093 0.000185275 -2.51052e-05 2.11671
0.255 0.01 -0.0106808 0.000192287 -2.60494e-05 2.18973
0.26 0.01 -0.0110652 0.000199047 -2.7028e-05 2.26515
0.265 0.01 -0.0114619 0.000205555 -2.80399e-05 2.34286
0.27 0.01 -0.0118705 0.000211808 -2.90836e-05 2.42274
0.275 0.01 -0.0122904 0.000217801 -3.01579e-05 2.50468
0.28 0.01 -0.0127209 0.000223526 -3.12616e-05 2.58856
0.285 0.01 -0.0131617 0.000228976 -3.23932e-05 2.67427
0.29 0.01 -0.0136119 0.00023414 -3.35514e-05 2.76166
0.295 0.01 -0.0140711 0.000239007 -3.47346e-05 2.85063
0.3 0.01 -0.0145387 0.000243565 -3.59414e-05 2.94104
0.305 0.01 -0.0150139 0.000247801 -3.71703e-05 3.03276
0.31 0.01 -0.0154962 0.000251703 -3.84195e-05 3.12565
0.315 0.01 -0.0159847 0.000255256 -3.96873e-05 3.21958
0.32 0.01 -0.0164789 0.000258448 -4.0972e-05 3.31438
0.325 0.01 -0.0169779 0.000261263 -4.22718e-05 3.40992
0.33 0.01 -0.0174809 0.000263688 -4.35847e-05 3.50605
0.335 0.01 -0.0179873 0.00026571 -4.49087e-05 3.6026
0.34 0.01 -0.0184962 0.000267315 -4.62418e-05 3.69942
0.345 0.01 -0.0190067 0.00026849 -4.75818e-05 3.79634
0.35 0.01 -0.0195181 0.000269222 -4.89267e-05 3.8932
0.355 0.01 -0.0200293 0.0002695 -5.02741e-05 3.98982
0.36 0.01 -0.0205396 0.000269311 -5.16217e-05 4.08603
0.365 0.01 -0.021048 0.000268646 -5.29672e-05 4.18165
0.37 0.01 -0.0215536 0.000267493 -5.43082e-05 4.27652
0.375 0.01 -0.0220555 0.000265845 -5.56422e-05 4.37044
0.38 0.01 -0.0225526 0.000263693 -5.69667e-05 4.46325
0.385 0.01 -0.0230441 0.000261029 -5.82791e-05 4.55474
0.39 0.01 -0.023529 0.000257847 -5.9577e-05 4.64475
0.395 0.01 -0.0240062 0.000254142 -6.08576e-05 4.73309
0.4 0.01 -0.0244749 0.00024991 -6.21184e-05 4.81958
0.405 0.01 -0.0249339 0.000245149 -6.33568e-05 4.90403
0.41 0.01 -0.0253824 0.000239856 -6.457e-05 4.98626
0.415 0.01 -0.0258193 0.00023403 -6.57554e-05 5.06609
0.42 0.01 -0.0262437 0.000227674 -6.69103e-05 5.14334
0.425 0.01 -0.0266546 0.000220789 -6.80321e-05 5.21783
0.43 0.01 -0.027051 0.000213379 -6.91182e-05 5.2894
0.435 0.01 -0.027432 0.000205449 -7.0166e-05 5.35787
0.44 0.01 -0.0277966 0.000197005 -7.11728e-05 5.42307
0.445 0.01 -0.0281439 0.000188054 -7.21361e-05 5.48485
0.45 0.01 -0.0284731 0.000178607 -7.30534e-05 5.54303
0.455 0.01 -0.0287832 0.000168674 -7.39222e-05 5.59747
0.46 0.01 -0.0290734 0.000158266 -7.47402e-05 5.64802
0.465 0.01 -0.0293429 0.000147399 -7.55049e-05 5.69454
0.47 0.01 -0.0295908 0.000136087 -7.62142e-05 5.73688
0.475 0.01 -0.0298165 0.000124346 -7.68659e-05 5.77492
0.48 0.01 -0.0300191 0.000112196 -7.74578e-05 5.80855
0.485 0.01 -0.030198 9.96557e-05 -7.79879e-05 5.83763
0.49 0.01 -0.0303526 8.67464e-05 -7.84544e-05 5.86207
0.495 0.01 -0.0304822 7.34909e-05 -7.88554e-05 5.88176
0.5 0.01 -0.0305863 5.99136e-05 -7.91894e-05 5.89662
0.505 0.01 -0.0306643 4.604e-05 -7.94546e-05 5.90656
0.51 0.01 -0.0307159 3.18975e-05 -7.96498e-05 5.91151
0.515 0.01 -0.0307405 1.75143e-05 -7.97737e-05 5.91142
0.52 0.01 -0.0307379 2.92049e-06 -7.98251e-05 5.90622
0.525 0.01 -0.0307077 -1.18528e-05 -7.9803e-05 5.89589
0.53 0.01 -0.0306497 -2.67732e-05 -7.97066e-05 5.88038
0.535 0.01 -0.0305638 -4.1807e-05 -7.95353e-05 5.85967
0.54 0.01 -0.0304497 -5.69195e-05 -7.92886e-05 5.83377
0.545 0.01 -0.0303075 -7.20748e-05 -7.89662e-05 5.80268
0.55 0.01 -0.0301372 -8.72362e-05 -7.8568e-05 5.7664
0.555 0.01 -0.0299388 -0.000102366 -7.80939e-05 5.72497
0.56 0.01 -0.0297125 -0.000117426 -7.75444e-05 5.67843
0.565 0.01 -0.0294585 -0.000132377 -7.69198e-05 5.62683
0.57 0.01 -0.0291771 -0.00014718 -7.62207e-05 5.57023
0.575 0.01 -0.0288686 -0.000161794 -7.54481e-05 5.5087
0.58 0.01 -0.0285336 -0.000176179 -7.46029e-05 5.44235
0.585 0.01 -0.0281724 -0.000190295 -7.36864e-05 5.37127
0.59 0.01 -0.0277857 -0.000204103 -7.27e-05 5.29557
0.595 0.01 -0.0273742 -0.000217561 -7.16454e-05 5.21538
0.6 0.01 -0.0269384 -0.00023063 -7.05245e-05 5.13084
0.605 0.01 -0.0264793 -0.000243272 -6.93392e-05 5.04209
0.61 0.01 -0.0259976 -0.000255447 -6.80918e-05 4.94929
0.615 0.01 -0.0254942 -0.000267119 -6.67848e-05 4.85263
0.62 0.01 -0.0249702 -0.000278252 -6.54207e-05 4.75227
0.625 0.01 -0.0244267 -0.000288811 -6.40024e-05 4.64842
0.63 0.01 -0.0238645 -0.000298762 -6.25327e-05 4.54127
0.635 0.01 -0.0232851 -0.000308074 -6.10148e-05 4.43104
0.64 0.01 -0.0226894 -0.000316718 -5.94521e-05 4.31795
0.645 0.01 -0.0220789 -0.000324666 -5.78477e-05 4.20223
0.65 0.01 -0.0214548 -0.000331893 -5.62055e-05 4.08411
0.655 0.01 -0.0208184 -0.000338376 -5.45289e-05 3.96384
0.66 0.01 -0.0201712 -0.000344095 -5.28218e-05 3.84166
0.665 0.01 -0.0195145 -0.000349033 -5.1088e-05 3.71784
0.67 0.01 -0.0188497 -0.000353176 -4.93315e-05 3.59262
0.675 0.01 -0.0181784 -0.000356513 -4.75563e-05 3.46627
0.68 0.01 -0.017502 -0.000359035 -4.57665e-05 3.33905
0.685 0.01 -0.0168219 -0.000360738 -4.3966e-05 3.21124
0.69 0.01 -0.0161398 -0.00036162 -4.21591e-05 3.0831
0.695 0.01 -0.015457 -0.000361684 -4.03499e-05 2.95488
0.7 0.01 -0.0147751 -0.000360934 -3.85423e-05 2.82687
0.705 0.01 -0.0140954 -0.000359379 -3.67406e-05 2.69932
0.71 0.01 -0.0134196 -0.000357033 -3.49486e-05 2.57249
0.715 0.01 -0.0127489 -0.00035391 -3.31703e-05 2.44663
0.72 0.01 -0.0120848 -0.000350029 -3.14095e-05 2.322
0.725 0.01 -0.0114286 -0.000345412 -2.96701e-05 2.19884
0.73 0.01 -0.0107817 -0.000340086 -2.79555e-05 2.07738
0.735 0.01 -0.0101453 -0.000334077 -2.62692e-05 1.95786
0.74 0.01 -0.00952067 -0.000327417 -2.46147e-05 1.84049
0.745 0.01 -0.00890892 -0.00032014 -2.29951e-05 1.72548
0.75 0.01 -0.00831117 -0.000312281 -2.14133e-05 1.61303
0.755 0.01 -0.00772844 -0.00030388 -1.98723e-05 1.50333
0.76 0.01 -0.00716171 -0.000294975 -1.83746e-05 1.39655
0.765 0.01 -0.00661185 -0.00028561 -1.69226e-05 1.29285
0.77 0.01 -0.0060797 -0.000275826 -1.55185e-05 1.1924
0.775 0.01 -0.00556597 -0.00026567 -1.41643e-05 1.09531
0.78 0.01 -0.00507134 -0.000255186 -1.28618e-05 1.00172
0.785 0.01 -0.00459637 -0.00024442 -1.16125e-05 0.911732
0.79 0.01 -0.00414157 -0.000233418 -1.04176e-05 0.82544
0.795 0.01 -0.00370733 -0.000222227 -9.27828e-06 0.742924
0.8 0.01 -0.00329399 -0.000210892 -8.19534e-06 0.664248
0.805 0.01 -0.00290179 -0.000199458 -7.16937e-06 0.589462
0.81 0.01 -0.00253091 -0.000187969 -6.20076e-06 0.518603
0.815 0.01 -0.00218141 -0.00017647 -5.28967e-06 0.451691
0.82 0.01 -0.00185333 -0.000165001 -4.43605e-06 0.388735
0.825 0.01 -0.00154657 -0.000153602 -3.63965e-06 0.329728
0.83 0.01 -0.00126102 -0.000142313 -2.90002e-06 0.274652
0.835 0.01 -0.000996458 -0.000131168 -2.21652e-06 0.223475
0.84 0.01 -0.000752615 -0.000120203 -1.58833e-06 0.176153
0.845 0.01 -0.000529156 -0.000109448 -1.01448e-06 0.132632
0.85 0.01 -0.00032569 -9.89331e-05 -4.93838e-07 0.0928461
0.855 0.01 -0.000141772 -8.86848e-05 -2.51372e-08 0.0567193
0.86 0.01 2.30908e-05 -7.87273e-05 3.93021e-07 0.0241664
0.865 0.01 0.000169437 -6.90822e-05 7.62147e-07 -0.00490639
0.87 0.01 0.000297844 -5.97687e-05 1.08385e-06 -0.0306008
0.875 0.01 0.000408927 -5.08035e-05 1.35985e-06 -0.053026
0.88 0.01 0.000503332 -4.22013e-05 1.5919e-06 -0.0722975
0.885 0.01 0.000581734 -3.39745e-05 1.78187e-06 -0.0885371
0.89 0.01 0.000644833 -2.61339e-05 1.93166e-06 -0.101872
0.895 0.01 0.000693351 -1.86887e-05 2.04322e-06 -0.112434
0.9 0.01 0.000728031 -1.16475e-05 2.11855e-06 -0.120361
0.905 0.01 0.000749635 -5.01783e-06 2.1597e-06 -0.125794
0.91 0.01 0.000758944 1.19217e-06 2.16874e-06 -0.128879
0.915 0.01 0.000756758 6.97376e-06 2.14779e-06 -0.129767
0.92 0.01 0.0007439 1.23164e-05 2.09901e-06 -0.128615
0.925 0.01 0.00072122 1.72068e-05 2.02463e-06 -0.125585
0.93 0.01 0.000689597 2.16275e-05 1.92695e-06 -0.120847
0.935 0.01 0.000649955 2.55556e-05 1.80837e-06 -0.114578
0.94 0.01 0.000603265 2.89608e-05 1.6714e-06 -0.106967
0.945 0.01 0.000550567 3.18029e-05 1.51876e-06 -0.098216
0.95 0.01 0.000492981 3.40296e-05 1.35338e-06 -0.0885415
0.955 0.01 0.000431734 3.55727e-05 1.17847e-06 -0.0781797
0.96 0.01 0.000368183 3.63444e-05 9.97653e-07 -0.067389
0.965 0.01 0.000303848 3.62324e-05 8.15029e-07 -0.056454
0.97 0.01 0.000240441 3.50955e-05 6.3533e-07 -0.0456879
0.975 0.01 0.000179904 3.27601e-05 4.64075e-07 -0.0354323
0.98 0.01 0.000124427 2.9025e-05 3.0773e-07 -0.0260501
0.985 0.01 7.64322e-05 2.36924e-05 1.73825e-07 -0.0179024
0.99 0.01 3.84618e-05 1.66804e-05 7.08063e-08 -0.0112896
0.995 0.01 1.28267e-05 8.37916e-06 7.02121e-09 -0.00632013
1 0.01 7.01907e-07 7.02121e-07 -1.29854e-08 -0.00263928
0 0.015 0 0 -0.000561526 0
0.005 0.015 0 0 0 -255.962
0.01 0.015 -0.152861 0.184871 -0.00180047 -79.2541
0.015 0.015 -0.206256 -0.0236457 -0.00184871 -16.6385
0.02 0.015 -0.204609 -0.057301 -0.00156401 2.30975
0.025 0.015 -0.184594 -0.0522448 -0.0012757 7.91847
0.03 0.015 -0.161069 -0.0416582 -0.00104156 9.24071
0.035 0.015 -0.139023 -0.0325141 -0.000859115 9.10695
0.04 0.015 -0.119748 -0.0256031 -0.000716424 8.48447
0.045 0.015 -0.103282 -0.0204854 -0.000603084 7.72637
0.05 0.015 -0.0893078 -0.0166429 -0.00051157 6.96595
0.055 0.015 -0.0774537 -0.0136884 -0.000436655 6.25302
0.06 0.015 -0.0673838 -0.0113616 -0.000374685 5.60429
0.065 0.015 -0.0588162 -0.00949095 -0.000323039 5.02301
0.07 0.015 -0.0515185 -0.00796222 -0.000279776 4.50692
0.075 0.015 -0.0452993 -0.00669746 -0.000243416 4.0516
0.08 0.015 -0.0399998 -0.00564157 -0.000212801 3.65191
0.085 0.015 -0.0354872 -0.00475425 -0.000187 3.30259
0.09 0.015 -0.0316493 -0.00400502 -0.000165258 2.99861
0.095 0.015 -0.0283911 -0.00337012 -0.00014695 2.73522
0.1 0.015 -0.0256317 -0.00283064 -0.000131557 2.50806
0.105 0.015 -0.0233019 -0.00237117 -0.000118644 2.31316
0.11 0.015 -0.0213425 -0.00197904 -0.000107845 2.1469
0.115 0.015 -0.0197031 -0.00164371 -9.88533e-05 2.00606
0.12 0.015 -0.0183402 -0.00135633 -9.1408e-05 1.88775
0.125 0.015 -0.0172169 -0.00110947 -8.52899e-05 1.78939
0.13 0.015 -0.0163015 -0.000896858 -8.03132e-05 1.70871
0.135 0.015 -0.0155668 -0.000713174 -7.63212e-05 1.64371
0.14 0.015 -0.0149899 -0.000553929 -7.31814e-05 1.59262
0.145 0.015 -0.014551 -0.000415319 -7.07819e-05 1.55391
0.15 0.015 -0.0142333 -0.000294123 -6.90281e-05 1.52622
0.155 0.015 -0.0140227 -0.000187617 -6.78406e-05 1.50837
0.16 0.015 -0.0139068 -9.34956e-05 -6.71519e-05 1.49936
0.165 0.015 -0.0138754 -9.81375e-06 -6.69055e-05 1.49828
0.17 0.015 -0.0139197 6.50699e-05 -6.70537e-05 1.50437
0.175 0.015 -0.0140322 0.000132537 -6.75562e-05 1.51695
0.18 0.015 -0.0142066 0.000193748 -6.8379e-05 1.53546
0.185 0.015 -0.0144375 0.000249677 -6.94936e-05 1.55938
0.19 0.015 -0.0147203 0.000301136 -7.08758e-05 1.58827
0.195 0.015 -0.015051 0.000348804 -7.25049e-05 1.62176
0.2 0.015 -0.0154263 0.00039324 -7.43637e-05 1.65951
0.205 0.015 -0.0158432 0.000434911 -7.64373e-05 1.70122
0.21 0.015 -0.0162992 0.000474197 -7.87128e-05 1.74664
0.215 0.015 -0.0167921 0.00051141 -8.11792e-05 1.79554
0.22 0.015 -0.01732 0.0005468 -8.38269e-05 1.84769
0.225 0.015 -0.017881 0.000580571 -8.66472e-05 1.90293
0.23 0.015 -0.0184737 0.000612881 -8.96326e-05 1.96106
0.235 0.015 -0.0190965 0.000643855 -9.2776e-05 2.02194
0.24 0.015 -0.0197482 0.000673587 -9.60711e-05 2.08542
0.245 0.015 -0.0204274 0.000702145 -9.95118e-05 2.15134
0.25 0.015 -0.0211329 0.000729577 -0.000103093 2.21957
0.255 0.015 -0.0218637 0.000755914 -0.000106808 2.28998
0.26 0.015 -0.0226185 0.000781169 -0.000110652 2.36244
0.265 0.015 -0.0233961 0.000805347 -0.000114619 2.43682
0.27 0.015 -0.0241955 0.000828438 -0.000118705 2.51299
0.275 0.015 -0.0250155 0.000850425 -0.000122904 2.59082
0.28 0.015 -0.0258549 0.000871285 -0.000127209 2.67019
0.285 0.015 -0.0267125 0.000890987 -0.000131617 2.75095
0.29 0.015 -0.0275871 0.000909496 -0.000136119 2.83299
0.295 0.015 -0.0284775 0.000926773 -0.000140711 2.91617
0.3 0.015 -0.0293823 0.000942777 -0.000145387 3.00035
0.305 0.015 -0.0303002 0.000957461 -0.000150139 3.08538
0.31 0.015 -0.03123 0.000970782 -0.000154962 3.17113
0.315 0.015 -0.03217 0.000982691 -0.000159847 3.25746
0.32 0.015 -0.033119 0.00099314 -0.000164789 3.34422
0.325 0.015 -0.0340754 0.00100208 -0.000169779 3.43125
0.33 0.015 -0.0350377 0.00100947 -0.000174809 3.51841
0.335 0.015 -0.0360043 0.00101526 -0.000179873 3.60555
0.34 0.015 -0.0369737 0.0010194 -0.000184962 3.6925
0.345 0.015 -0.0379441 0.00102186 -0.000190067 3.77912
0.35 0.015 -0.038914 0.00102258 -0.000195181 3.86524
0.355 0.015 -0.0398816 0.00102154 -0.000200293 3.9507
0.36 0.015 -0.0408452 0.00101869 -0.000205396 4.03535
0.365 0.015 -0.041803 0.00101401 -0.00021048 4.11901
0.37 0.015 -0.0427532 0.00100745 -0.000215536 4.20154
0.375 0.015 -0.0436942 0.000999007 -0.000220555 4.28276
0.38 0.015 -0.044624 0.000988641 -0.000225527 4.36253
0.385 0.015 -0.0455408 0.000976338 -0.000230442 4.44067
0.39 0.015 -0.0464428 0.000962084 -0.00023529 4.51703
0.395 0.015 -0.0473282 0.000945865 -0.000240063 4.59145
0.4 0.015 -0.0481952 0.000927677 -0.000244749 4.66378
0.405 0.015 -0.0490418 0.000907515 -0.000249339 4.73387
0.41 0.015 -0.0498663 0.000885384 -0.000253824 4.80155
0.415 0.015 -0.0506669 0.000861288 -0.000258193 4.86669
0.42 0.015 -0.0514418 0.000835241 -0.000262437 4.92914
0.425 0.015 -0.0521892 0.000807259 -0.000266546 4.98876
0.43 0.015 -0.0529073 0.000777363 -0.00027051 5.04541
0.435 0.015 -0.0535946 0.00074558 -0.00027432 5.09896
0.44 0.015 -0.0542492 0.000711942 -0.000277966 5.14929
0.445 0.015 -0.0548695 0.000676484 -0.000281439 5.19626
0.45 0.015 -0.055454 0.00063925 -0.000284731 5.23976
0.455 0.015 -0.0560011 0.000600286 -0.000287832 5.27968
0.46 0.015 -0.0565093 0.000559645 -0.000290734 5.31592
0.465 0.015 -0.0569772 0.000517383 -0.000293429 5.34837
0.47 0.015 -0.0574035 0.000473565 -0.000295908 5.37693
0.475 0.015 -0.0577866 0.000428257 -0.000298165 5.40153
0.48 0.015 -0.0581256 0.000381532 -0.000300191 5.42209
0.485 0.015 -0.0584192 0.00033347 -0.00030198 5.43852
0.49 0.015 -0.0586662 0.000284152 -0.000303526 5.45077
0.495 0.015 -0.0588658 0.000233668 -0.000304822 5.45877
0.5 0.015 -0.059017 0.000182111 -0.000305863 5.46248
0.505 0.015 -0.059119 0.000129578 -0.000306644 5.46187
0.51 0.015 -0.059171 7.61713e-05 -0.000307159 5.45688
0.515 0.015 -0.0591724 2.19991e-05 -0.000307406 5.4475
0.52 0.015 -0.0591227 -3.28275e-05 -0.000307379 5.43371
0.525 0.015 -0.0590215 -8.81928e-05 -0.000307078 5.41551
0.53 0.015 -0.0588685 -0.000143977 -0.000306498 5.3929
0.535 0.015 -0.0586634 -0.000200057 -0.000305638 5.36588
0.54 0.015 -0.0584061 -0.000256305 -0.000304498 5.33448
0.545 0.015 -0.0580968 -0.000312592 -0.000303075 5.29872
0.55 0.015 -0.0577355 -0.000368784 -0.000301372 5.25864
0.555 0.015 -0.0573224 -0.000424747 -0.000299388 5.21428
0.56 0.015 -0.0568581 -0.000480341 -0.000297125 5.16571
0.565 0.015 -0.0563429 -0.000535427 -0.000294585 5.11299
0.57 0.015 -0.0557776 -0.000589866 -0.000291771 5.05619
0.575 0.015 -0.0551628 -0.000643514 -0.000288687 4.9954
0.58 0.015 -0.0544995 -0.000696229 -0.000285336 4.9307
0.585 0.015 -0.0537887 -0.00074787 -0.000281725 4.86219
0.59 0.015 -0.0530314 -0.000798295 -0.000277858 4.78999
0.595 0.015 -0.052229 -0.000847364 -0.000273742 4.71421
0.6 0.015 -0.0513829 -0.000894938 -0.000269384 4.63498
0.605 0.015 -0.0504944 -0.000940881 -0.000264793 4.55243
0.61 0.015 -0.0495652 -0.00098506 -0.000259976 4.4667
0.615 0.015 -0.0485971 -0.00102735 -0.000254943 4.37795
0.62 0.015 -0.0475919 -0.00106761 -0.000249703 4.28632
0.625 0.015 -0.0465514 -0.00110574 -0.000244267 4.19199
0.63 0.015 -0.0454778 -0.00114162 -0.000238646 4.09511
0.635 0.015 -0.0443731 -0.00117513 -0.000232851 3.99587
0.64 0.015 -0.0432396 -0.00120618 -0.000226895 3.89444
0.645 0.015 -0.0420795 -0.00123467 -0.000220789 3.79102
0.65 0.015 -0.0408953 -0.00126052 -0.000214548 3.6858
0.655 0.015 -0.0396894 -0.00128365 -0.000208185 3.57896
0.66 0.015 -0.0384643 -0.001304 -0.000201712 3.47071
0.665 0.015 -0.0372225 -0.00132149 -0.000195145 3.36125
0.67 0.015 -0.0359667 -0.00133609 -0.000188497 3.25079
0.675 0.015 -0.0346995 -0.00134776 -0.000181784 3.13953
0.68 0.015 -0.0334235 -0.00135647 -0.00017502 3.02768
0.685 0.015 -0.0321415 -0.00136221 -0.00016822 2.91545
0.69 0.015 -0.0308561 -0.00136496 -0.000161398 2.80305
0.695 0.015 -0.02957 -0.00136475 -0.00015457 2.69068
0.7 0.015 -0.0282858 -0.0013616 -0.000147751 2.57857
0.705 0.015 -0.0270063 -0.00135552 -0.000140955 2.4669
0.71 0.015 -0.025734 -0.00134657 -0.000134196 2.35589
0.715 0.015 -0.0244715 -0.0013348 -0.000127489 2.24573
0.72 0.015 -0.0232213 -0.00132028 -0.000120848 2.13663
0.725 0.015 -0.0219859 -0.00130309 -0.000114286 2.02876
0.73 0.015 -0.0207677 -0.00128331 -0.000107817 1.92233
0.735 0.015 -0.0195689 -0.00126105 -0.000101453 1.81751
0.74 0.015 -0.0183917 -0.00123641 -9.52068e-05 1.71448
0.745 0.015 -0.0172383 -0.00120952 -8.90893e-05 1.6134
0.75 0.015 -0.0161107 -0.00118049 -8.31118e-05 1.51443
0.755 0.015 -0.0150108 -0.00114947 -7.72845e-05 1.41773
0.76 0.015 -0.0139402 -0.0011166 -7.16171e-05 1.32344
0.765 0.015 -0.0129008 -0.00108202 -6.61186e-05 1.2317
0.77 0.015 -0.0118938 -0.00104589 -6.0797e-05 1.14263
0.775 0.015 -0.0109209 -0.00100836 -5.56598e-05 1.05634
0.78 0.015 -0.00998303 -0.000969605 -5.07134e-05 0.972947
0.785 0.015 -0.00908145 -0.000929779 -4.59638e-05 0.892541
0.79 0.015 -0.00821706 -0.000889049 -4.14157e-05 0.815206
0.795 0.015 -0.00739064 -0.00084758 -3.70733e-05 0.741015
0.8 0.015 -0.00660285 -0.000805537 -3.29399e-05 0.670032
0.805 0.015 -0.00585417 -0.000763083 -2.90179e-05 0.602306
0.81 0.015 -0.00514496 -0.000720379 -2.53091e-05 0.537879
0.815 0.015 -0.00447544 -0.00067758 -2.18141e-05 0.47678
0.82 0.015 -0.00384566 -0.000634839 -1.85332e-05 0.419026
0.825 0.015 -0.00325557 -0.000592303 -1.54657e-05 0.364624
0.83 0.015 -0.00270497 -0.000550113 -1.26102e-05 0.313572
0.835 0.015 -0.00219353 -0.000508403 -9.96456e-06 0.265856