Title=" Lid Driven Flow"
VARIABLES="X","Y","U","V","psi","xi"
ZONE T= "BOX", I= 201, J=201, F=POINT
0 0 0 0 0.0028469 0
0.005 0 0 0 0 0
0.01 0 0 0 0 0
0.015 0 0 0 0 161.891
0.02 0 0 0 0 176.124
0.025 0 0 0 0 155.605
0.03 0 0 0 0 133.217
0.035 0 0 0 0 115.7
0.04 0 0 0 0 102.848
0.045 0 0 0 0 93.3161
0.05 0 0 0 0 85.9947
0.055 0 0 0 0 80.1503
0.06 0 0 0 0 75.3242
0.065 0 0 0 0 71.2277
0.07 0 0 0 0 67.6732
0.075 0 0 0 0 64.5343
0.08 0 0 0 0 61.723
0.085 0 0 0 0 59.176
0.09 0 0 0 0 56.8466
0.095 0 0 0 0 54.6998
0.1 0 0 0 0 52.7089
0.105 0 0 0 0 50.853
0.11 0 0 0 0 49.1155
0.115 0 0 0 0 47.4833
0.12 0 0 0 0 45.9454
0.125 0 0 0 0 44.493
0.13 0 0 0 0 43.1184
0.135 0 0 0 0 41.8152
0.14 0 0 0 0 40.5779
0.145 0 0 0 0 39.4015
0.15 0 0 0 0 38.2818
0.155 0 0 0 0 37.2148
0.16 0 0 0 0 36.197
0.165 0 0 0 0 35.2252
0.17 0 0 0 0 34.2965
0.175 0 0 0 0 33.4081
0.18 0 0 0 0 32.5574
0.185 0 0 0 0 31.742
0.19 0 0 0 0 30.9598
0.195 0 0 0 0 30.2086
0.2 0 0 0 0 29.4864
0.205 0 0 0 0 28.7914
0.21 0 0 0 0 28.1217
0.215 0 0 0 0 27.4758
0.22 0 0 0 0 26.852
0.225 0 0 0 0 26.2489
0.23 0 0 0 0 25.6651
0.235 0 0 0 0 25.0991
0.24 0 0 0 0 24.5498
0.245 0 0 0 0 24.016
0.25 0 0 0 0 23.4965
0.255 0 0 0 0 22.9902
0.26 0 0 0 0 22.4963
0.265 0 0 0 0 22.0137
0.27 0 0 0 0 21.5417
0.275 0 0 0 0 21.0792
0.28 0 0 0 0 20.6257
0.285 0 0 0 0 20.1804
0.29 0 0 0 0 19.7426
0.295 0 0 0 0 19.3116
0.3 0 0 0 0 18.8871
0.305 0 0 0 0 18.4683
0.31 0 0 0 0 18.0548
0.315 0 0 0 0 17.6463
0.32 0 0 0 0 17.2422
0.325 0 0 0 0 16.8422
0.33 0 0 0 0 16.4461
0.335 0 0 0 0 16.0534
0.34 0 0 0 0 15.664
0.345 0 0 0 0 15.2777
0.35 0 0 0 0 14.8942
0.355 0 0 0 0 14.5134
0.36 0 0 0 0 14.1352
0.365 0 0 0 0 13.7595
0.37 0 0 0 0 13.3862
0.375 0 0 0 0 13.0153
0.38 0 0 0 0 12.6467
0.385 0 0 0 0 12.2806
0.39 0 0 0 0 11.9168
0.395 0 0 0 0 11.5555
0.4 0 0 0 0 11.1968
0.405 0 0 0 0 10.8408
0.41 0 0 0 0 10.4875
0.415 0 0 0 0 10.1371
0.42 0 0 0 0 9.78975
0.425 0 0 0 0 9.44563
0.43 0 0 0 0 9.1049
0.435 0 0 0 0 8.76776
0.44 0 0 0 0 8.43439
0.445 0 0 0 0 8.105
0.45 0 0 0 0 7.7798
0.455 0 0 0 0 7.45901
0.46 0 0 0 0 7.14284
0.465 0 0 0 0 6.83153
0.47 0 0 0 0 6.52527
0.475 0 0 0 0 6.22431
0.48 0 0 0 0 5.92884
0.485 0 0 0 0 5.63908
0.49 0 0 0 0 5.35523
0.495 0 0 0 0 5.07749
0.5 0 0 0 0 4.80604
0.505 0 0 0 0 4.54105
0.51 0 0 0 0 4.2827
0.515 0 0 0 0 4.03112
0.52 0 0 0 0 3.78646
0.525 0 0 0 0 3.54883
0.53 0 0 0 0 3.31835
0.535 0 0 0 0 3.09509
0.54 0 0 0 0 2.87913
0.545 0 0 0 0 2.67053
0.55 0 0 0 0 2.46932
0.555 0 0 0 0 2.27552
0.56 0 0 0 0 2.08913
0.565 0 0 0 0 1.91014
0.57 0 0 0 0 1.73851
0.575 0 0 0 0 1.5742
0.58 0 0 0 0 1.41713
0.585 0 0 0 0 1.26723
0.59 0 0 0 0 1.12441
0.595 0 0 0 0 0.988548
0.6 0 0 0 0 0.859525
0.605 0 0 0 0 0.737206
0.61 0 0 0 0 0.621445
0.615 0 0 0 0 0.512087
0.62 0 0 0 0 0.408965
0.625 0 0 0 0 0.311907
0.63 0 0 0 0 0.220732
0.635 0 0 0 0 0.135255
0.64 0 0 0 0 0.055285
0.645 0 0 0 0 -0.0193729
0.65 0 0 0 0 -0.0889163
0.655 0 0 0 0 -0.153545
0.66 0 0 0 0 -0.21346
0.665 0 0 0 0 -0.268863
0.67 0 0 0 0 -0.319956
0.675 0 0 0 0 -0.366941
0.68 0 0 0 0 -0.410017
0.685 0 0 0 0 -0.449385
0.69 0 0 0 0 -0.485241
0.695 0 0 0 0 -0.517782
0.7 0 0 0 0 -0.547199
0.705 0 0 0 0 -0.573684
0.71 0 0 0 0 -0.597424
0.715 0 0 0 0 -0.618602
0.72 0 0 0 0 -0.637397
0.725 0 0 0 0 -0.653986
0.73 0 0 0 0 -0.668536
0.735 0 0 0 0 -0.681211
0.74 0 0 0 0 -0.692167
0.745 0 0 0 0 -0.701553
0.75 0 0 0 0 -0.709507
0.755 0 0 0 0 -0.716157
0.76 0 0 0 0 -0.721623
0.765 0 0 0 0 -0.72601
0.77 0 0 0 0 -0.729411
0.775 0 0 0 0 -0.731905
0.78 0 0 0 0 -0.733558
0.785 0 0 0 0 -0.73442
0.79 0 0 0 0 -0.734527
0.795 0 0 0 0 -0.7339
0.8 0 0 0 0 -0.732545
0.805 0 0 0 0 -0.730455
0.81 0 0 0 0 -0.727607
0.815 0 0 0 0 -0.72397
0.82 0 0 0 0 -0.719497
0.825 0 0 0 0 -0.714135
0.83 0 0 0 0 -0.707822
0.835 0 0 0 0 -0.700489
0.84 0 0 0 0 -0.692064
0.845 0 0 0 0 -0.682473
0.85 0 0 0 0 -0.671643
0.855 0 0 0 0 -0.659501
0.86 0 0 0 0 -0.645982
0.865 0 0 0 0 -0.631027
0.87 0 0 0 0 -0.614587
0.875 0 0 0 0 -0.596626
0.88 0 0 0 0 -0.577122
0.885 0 0 0 0 -0.556069
0.89 0 0 0 0 -0.533481
0.895 0 0 0 0 -0.509392
0.9 0 0 0 0 -0.483858
0.905 0 0 0 0 -0.45696
0.91 0 0 0 0 -0.428803
0.915 0 0 0 0 -0.399519
0.92 0 0 0 0 -0.369269
0.925 0 0 0 0 -0.338238
0.93 0 0 0 0 -0.306645
0.935 0 0 0 0 -0.274735
0.94 0 0 0 0 -0.242784
0.945 0 0 0 0 -0.211096
0.95 0 0 0 0 -0.180008
0.955 0 0 0 0 -0.149885
0.96 0 0 0 0 -0.121126
0.965 0 0 0 0 -0.0941564
0.97 0 0 0 0 -0.069436
0.975 0 0 0 0 -0.0474504
0.98 0 0 0 0 -0.028707
0.985 0 0 0 0 -0.0137171
0.99 0 0 0 0 -0.00295603
0.995 0 0 0 0 0.00323454
1 0 0 0 0 0.004872
0 0.005 0 0 0 0
0.005 0.005 0 0 0 0
0.01 0.005 0 0 0 73.7278
0.015 0.005 0 0 0 62.0587
0.02 0.005 0 0 0 45.6979
0.025 0.005 0 0 0 33.9237
0.03 0.005 0 0 0 26.0276
0.035 0.005 0 0 0 20.6085
0.04 0.005 0 0 0 16.7226
0.045 0.005 0 0 0 13.8161
0.05 0.005 0 0 0 11.5671
0.055 0.005 0 0 0 9.78246
0.06 0.005 0 0 0 8.3404
0.065 0.005 0 0 0 7.16014
0.07 0.005 0 0 0 6.18541
0.075 0.005 0 0 0 5.37532
0.08 0.005 0 0 0 4.6991
0.085 0.005 0 0 0 4.13297
0.09 0.005 0 0 0 3.65811
0.095 0.005 0 0 0 3.25943
0.1 0.005 0 0 0 2.92466
0.105 0.005 0 0 0 2.64373
0.11 0.005 0 0 0 2.40832
0.115 0.005 0 0 0 2.21156
0.12 0.005 0 0 0 2.04768
0.125 0.005 0 0 0 1.91191
0.13 0.005 0 0 0 1.80021
0.135 0.005 0 0 0 1.70922
0.14 0.005 0 0 0 1.63613
0.145 0.005 0 0 0 1.57854
0.15 0.005 0 0 0 1.53446
0.155 0.005 0 0 0 1.50221
0.16 0.005 0 0 0 1.48036
0.165 0.005 0 0 0 1.46772
0.17 0.005 0 0 0 1.46327
0.175 0.005 0 0 0 1.46616
0.18 0.005 0 0 0 1.47565
0.185 0.005 0 0 0 1.49114
0.19 0.005 0 0 0 1.5121
0.195 0.005 0 0 0 1.53809
0.2 0.005 0 0 0 1.56872
0.205 0.005 0 0 0 1.60366
0.21 0.005 0 0 0 1.64263
0.215 0.005 0 0 0 1.68538
0.22 0.005 0 0 0 1.7317
0.225 0.005 0 0 0 1.78138
0.23 0.005 0 0 0 1.83426
0.235 0.005 0 0 0 1.89017
0.24 0.005 0 0 0 1.94898
0.245 0.005 0 0 0 2.01055
0.25 0.005 0 0 0 2.07474
0.255 0.005 0 0 0 2.14144
0.26 0.005 0 0 0 2.21053
0.265 0.005 0 0 0 2.28189
0.27 0.005 0 0 0 2.35541
0.275 0.005 0 0 0 2.43096
0.28 0.005 0 0 0 2.50843
0.285 0.005 0 0 0 2.58771
0.29 0.005 0 0 0 2.66867
0.295 0.005 0 0 0 2.75119
0.3 0.005 0 0 0 2.83513
0.305 0.005 0 0 0 2.92038
0.31 0.005 0 0 0 3.0068
0.315 0.005 0 0 0 3.09425
0.32 0.005 0 0 0 3.18258
0.325 0.005 0 0 0 3.27166
0.33 0.005 0 0 0 3.36132
0.335 0.005 0 0 0 3.45143
0.34 0.005 0 0 0 3.54182
0.345 0.005 0 0 0 3.63232
0.35 0.005 0 0 0 3.72278
0.355 0.005 0 0 0 3.81303
0.36 0.005 0 0 0 3.90289
0.365 0.005 0 0 0 3.99219
0.37 0.005 0 0 0 4.08075
0.375 0.005 0 0 0 4.16841
0.38 0.005 0 0 0 4.25496
0.385 0.005 0 0 0 4.34024
0.39 0.005 0 0 0 4.42406
0.395 0.005 0 0 0 4.50624
0.4 0.005 0 0 0 4.58659
0.405 0.005 0 0 0 4.66493
0.41 0.005 0 0 0 4.74108
0.415 0.005 0 0 0 4.81486
0.42 0.005 0 0 0 4.88608
0.425 0.005 0 0 0 4.95457
0.43 0.005 0 0 0 5.02016
0.435 0.005 0 0 0 5.08267
0.44 0.005 0 0 0 5.14195
0.445 0.005 0 0 0 5.19781
0.45 0.005 0 0 0 5.25012
0.455 0.005 0 0 0 5.29871
0.46 0.005 0 0 0 5.34344
0.465 0.005 0 0 0 5.38417
0.47 0.005 0 0 0 5.42077
0.475 0.005 0 0 0 5.4531
0.48 0.005 0 0 0 5.48107
0.485 0.005 0 0 0 5.50455
0.49 0.005 0 0 0 5.52345
0.495 0.005 0 0 0 5.53767
0.5 0.005 0 0 0 5.54714
0.505 0.005 0 0 0 5.55179
0.51 0.005 0 0 0 5.55156
0.515 0.005 0 0 0 5.5464
0.52 0.005 0 0 0 5.53628
0.525 0.005 0 0 0 5.52116
0.53 0.005 0 0 0 5.50104
0.535 0.005 0 0 0 5.47592
0.54 0.005 0 0 0 5.4458
0.545 0.005 0 0 0 5.41072
0.55 0.005 0 0 0 5.37071
0.555 0.005 0 0 0 5.32581
0.56 0.005 0 0 0 5.2761
0.565 0.005 0 0 0 5.22165
0.57 0.005 0 0 0 5.16255
0.575 0.005 0 0 0 5.0989
0.58 0.005 0 0 0 5.03081
0.585 0.005 0 0 0 4.9584
0.59 0.005 0 0 0 4.88182
0.595 0.005 0 0 0 4.80121
0.6 0.005 0 0 0 4.71674
0.605 0.005 0 0 0 4.62857
0.61 0.005 0 0 0 4.53688
0.615 0.005 0 0 0 4.44187
0.62 0.005 0 0 0 4.34374
0.625 0.005 0 0 0 4.24269
0.63 0.005 0 0 0 4.13894
0.635 0.005 0 0 0 4.03271
0.64 0.005 0 0 0 3.92423
0.645 0.005 0 0 0 3.81373
0.65 0.005 0 0 0 3.70146
0.655 0.005 0 0 0 3.58765
0.66 0.005 0 0 0 3.47255
0.665 0.005 0 0 0 3.3564
0.67 0.005 0 0 0 3.23946
0.675 0.005 0 0 0 3.12196
0.68 0.005 0 0 0 3.00416
0.685 0.005 0 0 0 2.8863
0.69 0.005 0 0 0 2.76863
0.695 0.005 0 0 0 2.65136
0.7 0.005 0 0 0 2.53475
0.705 0.005 0 0 0 2.41902
0.71 0.005 0 0 0 2.30438
0.715 0.005 0 0 0 2.19106
0.72 0.005 0 0 0 2.07925
0.725 0.005 0 0 0 1.96916
0.73 0.005 0 0 0 1.86097
0.735 0.005 0 0 0 1.75486
0.74 0.005 0 0 0 1.651
0.745 0.005 0 0 0 1.54954
0.75 0.005 0 0 0 1.45063
0.755 0.005 0 0 0 1.3544
0.76 0.005 0 0 0 1.26098
0.765 0.005 0 0 0 1.17048
0.77 0.005 0 0 0 1.08299
0.775 0.005 0 0 0 0.998604
0.78 0.005 0 0 0 0.917391
0.785 0.005 0 0 0 0.839415
0.79 0.005 0 0 0 0.764724
0.795 0.005 0 0 0 0.693358
0.8 0.005 0 0 0 0.625343
0.805 0.005 0 0 0 0.560695
0.81 0.005 0 0 0 0.499417
0.815 0.005 0 0 0 0.441505
0.82 0.005 0 0 0 0.386943
0.825 0.005 0 0 0 0.335705
0.83 0.005 0 0 0 0.287758
0.835 0.005 0 0 0 0.243059
0.84 0.005 0 0 0 0.201559
0.845 0.005 0 0 0 0.163198
0.85 0.005 0 0 0 0.127915
0.855 0.005 0 0 0 0.0956372
0.86 0.005 0 0 0 0.0662906
0.865 0.005 0 0 0 0.0397945
0.87 0.005 0 0 0 0.0160641
0.875 0.005 0 0 0 -0.00498917
0.88 0.005 0 0 0 -0.0234571
0.885 0.005 0 0 0 -0.0394345
0.89 0.005 0 0 0 -0.0530185
0.895 0.005 0 0 0 -0.0643084
0.9 0.005 0 0 0 -0.0734058
0.905 0.005 0 0 0 -0.0804138
0.91 0.005 0 0 0 -0.0854377
0.915 0.005 0 0 0 -0.0885847
0.92 0.005 0 0 0 -0.0899647
0.925 0.005 0 0 0 -0.0896906
0.93 0.005 0 0 0 -0.0878792
0.935 0.005 0 0 0 -0.0846528
0.94 0.005 0 0 0 -0.0801406
0.945 0.005 0 0 0 -0.074481
0.95 0.005 0 0 0 -0.0678244
0.955 0.005 0 0 0 -0.0603373
0.96 0.005 0 0 0 -0.0522072
0.965 0.005 0 0 0 -0.0436487
0.97 0.005 0 0 0 -0.034912
0.975 0.005 0 0 0 -0.026293
0.98 0.005 0 0 0 -0.0181459
0.985 0.005 0 0 0 -0.0108956
0.99 0.005 0 0 0 -0.00504118
0.995 0.005 0 0 0 -0.00112143
1 0.005 0 0 0 0.000453414
0 0.01 0 0 0.000453414 0
0.005 0.01 0 0 0 -326.272
0.01 0.01 -0.180032 0.0775734 -0.000921597 -44.4135
0.015 0.01 -0.184807 -0.0350373 -0.000775734 9.51818
0.02 0.01 -0.156283 -0.0351688 -0.000571224 19.1084
0.025 0.01 -0.127427 -0.0245879 -0.000424046 18.9862
0.03 0.01 -0.104038 -0.016644 -0.000325345 16.826
0.035 0.01 -0.0858632 -0.0116312 -0.000257606 14.5034
0.04 0.01 -0.0717007 -0.00849046 -0.000209033 12.4473
0.045 0.01 -0.060496 -0.00644437 -0.000172701 10.711
0.05 0.01 -0.0514839 -0.00504205 -0.000144589 9.2586
0.055 0.01 -0.0441316 -0.0040334 -0.000122281 8.04149
0.06 0.01 -0.0380662 -0.00327791 -0.000104255 7.017
0.065 0.01 -0.0330205 -0.00269374 -8.95016e-05 6.15083
0.07 0.01 -0.0287976 -0.00223102 -7.73175e-05 5.41596
0.075 0.01 -0.0252483 -0.00185787 -6.71914e-05 4.79094
0.08 0.01 -0.0222565 -0.00155293 -5.87387e-05 4.25854
0.085 0.01 -0.0197301 -0.00130123 -5.1662e-05 3.80471
0.09 0.01 -0.0175947 -0.00109191 -4.57263e-05 3.41785
0.095 0.01 -0.0157894 -0.000916806 -4.07428e-05 3.0883
0.1 0.01 -0.0142641 -0.000769623 -3.65581e-05 2.80793
0.105 0.01 -0.012977 -0.000645409 -3.30465e-05 2.56986
0.11 0.01 -0.0118932 -0.000540202 -3.0104e-05 2.36828
0.115 0.01 -0.0109833 -0.000450793 -2.76444e-05 2.19822
0.12 0.01 -0.0102227 -0.000374558 -2.5596e-05 2.05547
0.125 0.01 -0.00959066 -0.000309338 -2.38987e-05 1.9364
0.13 0.01 -0.00906949 -0.000253345 -2.25025e-05 1.83795
0.135 0.01 -0.00864437 -0.000205093 -2.13652e-05 1.75747
0.14 0.01 -0.00830273 -0.000163347 -2.04515e-05 1.69272
0.145 0.01 -0.0080339 -0.000127073 -1.97317e-05 1.64178
0.15 0.01 -0.00782883 -9.54044e-05 -1.91807e-05 1.60299
0.155 0.01 -0.00767987 -6.76185e-05 -1.87776e-05 1.57494
0.16 0.01 -0.00758048 -4.3107e-05 -1.85045e-05 1.55644
0.165 0.01 -0.00752514 -2.13601e-05 -1.83464e-05 1.54644
0.17 0.01 -0.00750914 -1.94982e-06 -1.82908e-05 1.54406
0.175 0.01 -0.00752847 1.54829e-05 -1.83269e-05 1.54854
0.18 0.01 -0.00757971 3.12392e-05 -1.84456e-05 1.55923
0.185 0.01 -0.00765993 4.55716e-05 -1.86392e-05 1.57557
0.19 0.01 -0.00776663 5.86912e-05 -1.89013e-05 1.59706
0.195 0.01 -0.00789766 7.07745e-05 -1.92261e-05 1.6233
0.2 0.01 -0.00805118 8.19686e-05 -1.9609e-05 1.65391
0.205 0.01 -0.00822555 9.23955e-05 -2.00457e-05 1.68858
0.21 0.01 -0.0084194 0.000102157 -2.05329e-05 1.72702
0.215 0.01 -0.00863147 0.000111335 -2.10673e-05 1.76899
0.22 0.01 -0.0088607 0.000119999 -2.16462e-05 1.81427
0.225 0.01 -0.00910609 0.000128204 -2.22672e-05 1.86265
0.23 0.01 -0.00936677 0.000135995 -2.29282e-05 1.91397
0.235 0.01 -0.00964193 0.000143408 -2.36271e-05 1.96805
0.24 0.01 -0.00993083 0.00015047 -2.43622e-05 2.02473
0.245 0.01 -0.0102328 0.000157203 -2.51318e-05 2.08388
0.25 0.01 -0.0105471 0.000163622 -2.59342e-05 2.14535
0.255 0.01 -0.0108732 0.00016974 -2.6768e-05 2.20902
0.26 0.01 -0.0112104 0.000175562 -2.76316e-05 2.27475
0.265 0.01 -0.0115581 0.000181093 -2.85236e-05 2.34242
0.27 0.01 -0.0119157 0.000186335 -2.94426e-05 2.4119
0.275 0.01 -0.0122827 0.000191284 -3.0387e-05 2.48308
0.28 0.01 -0.0126584 0.00019594 -3.13554e-05 2.55582
0.285 0.01 -0.0130422 0.000200295 -3.23464e-05 2.63
0.29 0.01 -0.0134335 0.000204345 -3.33584e-05 2.70549
0.295 0.01 -0.0138316 0.000208082 -3.43898e-05 2.78217
0.3 0.01 -0.014236 0.000211497 -3.54392e-05 2.85991
0.305 0.01 -0.0146459 0.000214582 -3.65048e-05 2.93857
0.31 0.01 -0.0150608 0.000217327 -3.7585e-05 3.01802
0.315 0.01 -0.0154798 0.000219723 -3.86781e-05 3.09812
0.32 0.01 -0.0159024 0.000221759 -3.97823e-05 3.17873
0.325 0.01 -0.0163277 0.000223425 -4.08958e-05 3.25971
0.33 0.01 -0.016755 0.000224712 -4.20166e-05 3.34091
0.335 0.01 -0.0171837 0.00022561 -4.31429e-05 3.42218
0.34 0.01 -0.0176129 0.000226109 -4.42728e-05 3.50338
0.345 0.01 -0.0180418 0.0002262 -4.54041e-05 3.58436
0.35 0.01 -0.0184696 0.000225875 -4.65348e-05 3.66495
0.355 0.01 -0.0188956 0.000225126 -4.76629e-05 3.745
0.36 0.01 -0.0193188 0.000223945 -4.87862e-05 3.82436
0.365 0.01 -0.0197385 0.000222326 -4.99024e-05 3.90286
0.37 0.01 -0.0201539 0.000220263 -5.10095e-05 3.98035
0.375 0.01 -0.0205641 0.000217751 -5.21052e-05 4.05667
0.38 0.01 -0.0209682 0.000214786 -5.31871e-05 4.13166
0.385 0.01 -0.0213653 0.000211365 -5.42531e-05 4.20515
0.39 0.01 -0.0217547 0.000207487 -5.53009e-05 4.27699
0.395 0.01 -0.0221354 0.000203149 -5.63281e-05 4.34702
0.4 0.01 -0.0225067 0.000198353 -5.73325e-05 4.41508
0.405 0.01 -0.0228676 0.0001931 -5.83118e-05 4.48102
0.41 0.01 -0.0232174 0.000187392 -5.92637e-05 4.54469
0.415 0.01 -0.0235552 0.000181233 -6.01859e-05 4.60592
0.42 0.01 -0.0238801 0.000174629 -6.10761e-05 4.66458
0.425 0.01 -0.0241914 0.000167586 -6.19323e-05 4.72052
0.43 0.01 -0.0244883 0.000160112 -6.27522e-05 4.7736
0.435 0.01 -0.02477 0.000152215 -6.35336e-05 4.82368
0.44 0.01 -0.0250357 0.000143906 -6.42745e-05 4.87063
0.445 0.01 -0.0252848 0.000135197 -6.49729e-05 4.91433
0.45 0.01 -0.0255166 0.0001261 -6.56267e-05 4.95464
0.455 0.01 -0.0257303 0.000116631 -6.62341e-05 4.99146
0.46 0.01 -0.0259253 0.000106804 -6.67932e-05 5.02468
0.465 0.01 -0.0261011 9.6637e-05 -6.73023e-05 5.05418
0.47 0.01 -0.026257 8.61479e-05 -6.77598e-05 5.07988
0.475 0.01 -0.0263925 7.53562e-05 -6.8164e-05 5.10169
0.48 0.01 -0.0265071 6.42828e-05 -6.85136e-05 5.11951
0.485 0.01 -0.0266004 5.29496e-05 -6.88071e-05 5.13329
0.49 0.01 -0.0266719 4.13796e-05 -6.90433e-05 5.14295
0.495 0.01 -0.0267212 2.95973e-05 -6.92211e-05 5.14844
0.5 0.01 -0.0267482 1.76278e-05 -6.93396e-05 5.1497
0.505 0.01 -0.0267524 5.49748e-06 -6.93977e-05 5.1467
0.51 0.01 -0.0267336 -6.76636e-06 -6.93948e-05 5.13941
0.515 0.01 -0.0266918 -1.91356e-05 -6.93303e-05 5.12781
0.52 0.01 -0.0266266 -3.15813e-05 -6.92037e-05 5.11188
0.525 0.01 -0.0265382 -4.40737e-05 -6.90148e-05 5.09162
0.53 0.01 -0.0264265 -5.65825e-05 -6.87633e-05 5.06704
0.535 0.01 -0.0262915 -6.9077e-05 -6.84492e-05 5.03816
0.54 0.01 -0.0261333 -8.15257e-05 -6.80728e-05 5.00502
0.545 0.01 -0.0259521 -9.38971e-05 -6.76343e-05 4.96763
0.55 0.01 -0.0257481 -0.000106159 -6.71341e-05 4.92606
0.555 0.01 -0.0255215 -0.00011828 -6.6573e-05 4.88037
0.56 0.01 -0.0252728 -0.000130228 -6.59516e-05 4.83061
0.565 0.01 -0.0250022 -0.00014197 -6.5271e-05 4.77688
0.57 0.01 -0.0247102 -0.000153476 -6.45322e-05 4.71925
0.575 0.01 -0.0243974 -0.000164714 -6.37365e-05 4.65783
0.58 0.01 -0.0240643 -0.000175653 -6.28854e-05 4.59273
0.585 0.01 -0.0237114 -0.000186263 -6.19803e-05 4.52405
0.59 0.01 -0.0233394 -0.000196516 -6.1023e-05 4.45193
0.595 0.01 -0.0229491 -0.000206382 -6.00154e-05 4.3765
0.6 0.01 -0.0225412 -0.000215835 -5.89595e-05 4.29789
0.605 0.01 -0.0221165 -0.000224847 -5.78574e-05 4.21628
0.61 0.01 -0.0216759 -0.000233396 -5.67113e-05 4.13179
0.615 0.01 -0.0212202 -0.000241457 -5.55237e-05 4.04462
0.62 0.01 -0.0207503 -0.000249008 -5.4297e-05 3.95491
0.625 0.01 -0.0202673 -0.00025603 -5.30339e-05 3.86286
0.63 0.01 -0.0197721 -0.000262504 -5.1737e-05 3.76865
0.635 0.01 -0.0192657 -0.000268415 -5.04091e-05 3.67245
0.64 0.01 -0.0187493 -0.000273747 -4.90531e-05 3.57447
0.645 0.01 -0.0182238 -0.000278489 -4.76719e-05 3.47489
0.65 0.01 -0.0176904 -0.00028263 -4.62685e-05 3.37392
0.655 0.01 -0.0171502 -0.000286163 -4.48458e-05 3.27176
0.66 0.01 -0.0166042 -0.000289083 -4.34071e-05 3.1686
0.665 0.01 -0.0160537 -0.000291385 -4.19552e-05 3.06466
0.67 0.01 -0.0154997 -0.00029307 -4.04934e-05 2.96014
0.675 0.01 -0.0149434 -0.000294138 -3.90248e-05 2.85523
0.68 0.01 -0.0143859 -0.000294594 -3.75523e-05 2.75015
0.685 0.01 -0.0138283 -0.000294444 -3.6079e-05 2.64508
0.69 0.01 -0.0132717 -0.000293695 -3.4608e-05 2.54024
0.695 0.01 -0.0127171 -0.000292359 -3.31422e-05 2.4358
0.7 0.01 -0.0121657 -0.000290448 -3.16846e-05 2.33198
0.705 0.01 -0.0116185 -0.000287978 -3.02379e-05 2.22894
0.71 0.01 -0.0110765 -0.000284965 -2.8805e-05 2.12688
0.715 0.01 -0.0105407 -0.000281429 -2.73884e-05 2.02596
0.72 0.01 -0.0100119 -0.000277389 -2.59908e-05 1.92637
0.725 0.01 -0.00949117 -0.000272868 -2.46146e-05 1.82825
0.73 0.01 -0.00897927 -0.00026789 -2.32623e-05 1.73177
0.735 0.01 -0.00847705 -0.00026248 -2.19359e-05 1.63708
0.74 0.01 -0.00798528 -0.000256664 -2.06376e-05 1.54431
0.745 0.01 -0.00750467 -0.000250471 -1.93693e-05 1.4536
0.75 0.01 -0.0070359 -0.000243928 -1.81329e-05 1.36507
0.755 0.01 -0.00657958 -0.000237064 -1.69301e-05 1.27883
0.76 0.01 -0.00613629 -0.00022991 -1.57624e-05 1.19499
0.765 0.01 -0.00570655 -0.000222496 -1.46311e-05 1.11364
0.77 0.01 -0.0052908 -0.000214851 -1.35374e-05 1.03488
0.775 0.01 -0.00488945 -0.000207006 -1.24826e-05 0.958763
0.78 0.01 -0.00450286 -0.000198991 -1.14674e-05 0.885371
0.785 0.01 -0.00413132 -0.000190837 -1.04927e-05 0.814757
0.79 0.01 -0.00377508 -0.000182574 -9.55908e-06 0.746968
0.795 0.01 -0.00343431 -0.000174229 -8.667e-06 0.682041
0.8 0.01 -0.00310916 -0.000165831 -7.81681e-06 0.620005
0.805 0.01 -0.00279972 -0.000157409 -7.00869e-06 0.560878
0.81 0.01 -0.00250601 -0.000148988 -6.24272e-06 0.504671
0.815 0.01 -0.00222804 -0.000140593 -5.51882e-06 0.451386
0.82 0.01 -0.00196574 -0.00013225 -4.83678e-06 0.401016
0.825 0.01 -0.00171901 -0.00012398 -4.19631e-06 0.353545
0.83 0.01 -0.00148771 -0.000115807 -3.59697e-06 0.308952
0.835 0.01 -0.00127166 -0.000107748 -3.03823e-06 0.267206
0.84 0.01 -0.00107065 -9.98249e-05 -2.51947e-06 0.228272
0.845 0.01 -0.000884414 -9.20533e-05 -2.03996e-06 0.192107
0.85 0.01 -0.000712678 -8.44495e-05 -1.59891e-06 0.158661
0.855 0.01 -0.000555129 -7.70277e-05 -1.19544e-06 0.127881
0.86 0.01 -0.000411427 -6.98009e-05 -8.28608e-07 0.099707
0.865 0.01 -0.000281211 -6.27806e-05 -4.97405e-07 0.0740744
0.87 0.01 -0.000164097 -5.5977e-05 -2.00774e-07 0.0509149
0.875 0.01 -5.96822e-05 -4.93988e-05 6.23922e-08 0.0301563
0.88 0.01 3.24541e-05 -4.30539e-05 2.93242e-07 0.0117224
0.885 0.01 0.000112747 -3.69489e-05 4.92959e-07 -0.00446608
0.89 0.01 0.000181646 -3.10896e-05 6.62758e-07 -0.0184913
0.895 0.01 0.000239612 -2.54814e-05 8.03882e-07 -0.0304385
0.9 0.01 0.000287118 -2.0129e-05 9.17599e-07 -0.0403955
0.905 0.01 0.00032465 -1.50373e-05 1.0052e-06 -0.0484527
0.91 0.01 0.000352702 -1.02111e-05 1.068e-06 -0.0547036
0.915 0.01 0.000371785 -5.65635e-06 1.10733e-06 -0.0592444
0.92 0.01 0.000382419 -1.37998e-06 1.12458e-06 -0.0621748
0.925 0.01 0.000385147 2.60907e-06 1.12115e-06 -0.0635987
0.93 0.01 0.00038053 6.2992e-06 1.09851e-06 -0.0636242
0.935 0.01 0.000369156 9.67509e-06 1.05818e-06 -0.0623658
0.94 0.01 0.00035165 1.27165e-05 1.00177e-06 -0.0599448
0.945 0.01 0.000328678 1.53968e-05 9.31025e-07 -0.0564914
0.95 0.01 0.000300967 1.76809e-05 8.47816e-07 -0.0521466
0.955 0.01 0.000269311 1.95226e-05 7.54227e-07 -0.047065
0.96 0.01 0.000234598 2.08617e-05 6.52598e-07 -0.0414175
0.965 0.01 0.000197831 2.16199e-05 5.45615e-07 -0.0353944
0.97 0.01 0.000160154 2.16953e-05 4.36404e-07 -0.0292085
0.975 0.01 0.000122886 2.0958e-05 3.28665e-07 -0.0230973
0.98 0.01 8.75453e-05 1.9247e-05 2.26826e-07 -0.0173206
0.985 0.01 5.58678e-05 1.63811e-05 1.36197e-07 -0.0121494
0.99 0.01 2.97657e-05 1.22179e-05 6.30149e-08 -0.00783256
0.995 0.01 1.11498e-05 6.86826e-06 1.40177e-08 -0.00451101
1 0.01 1.39841e-06 1.40177e-06 -5.66783e-09 -0.00202694
0 0.015 0 0 -0.00111872 0
0.005 0.015 0 0 0 -255.975
0.01 0.015 -0.152824 0.184807 -0.00180032 -79.2709
0.015 0.015 -0.206155 -0.0237493 -0.00184807 -16.6443
0.02 0.015 -0.204459 -0.0573798 -0.00156283 2.32287
0.025 0.015 -0.184443 -0.052245 -0.00127427 7.9458
0.03 0.015 -0.160984 -0.0415638 -0.00104038 9.27708
0.035 0.015 -0.139069 -0.0323369 -0.000858632 9.15027
0.04 0.015 -0.119975 -0.0253672 -0.000717007 8.535
0.045 0.015 -0.103723 -0.0202168 -0.00060496 7.78542
0.05 0.015 -0.0899776 -0.0163643 -0.000514839 7.03498
0.055 0.015 -0.078353 -0.0134177 -0.000441316 6.33312
0.06 0.015 -0.0685017 -0.0111111 -0.000380662 5.69599
0.065 0.015 -0.0601335 -0.0092686 -0.000330205 5.12627
0.07 0.015 -0.0530111 -0.0077722 -0.000287976 4.62122
0.075 0.015 -0.0469407 -0.0065411 -0.000252483 4.17602
0.08 0.015 -0.0417629 -0.00551818 -0.000222565 3.78525
0.085 0.015 -0.0373454 -0.00466179 -0.0001973 3.4435
0.09 0.015 -0.0335779 -0.00394061 -0.000175946 3.14564
0.095 0.015 -0.0303676 -0.00333049 -0.000157894 2.88694
0.1 0.015 -0.0276361 -0.00281236 -0.000142641 2.66306
0.105 0.015 -0.0253168 -0.00237091 -0.00012977 2.47013
0.11 0.015 -0.0233532 -0.00199369 -0.000118932 2.30464
0.115 0.015 -0.0216971 -0.00167043 -0.000109833 2.16349
0.12 0.015 -0.0203075 -0.00139265 -0.000102227 2.04391
0.125 0.015 -0.0191492 -0.00115323 -9.59063e-05 1.94345
0.13 0.015 -0.0181922 -0.000946259 -9.06946e-05 1.85995
0.135 0.015 -0.017411 -0.00076673 -8.64434e-05 1.79152
0.14 0.015 -0.0167835 -0.000610448 -8.3027e-05 1.73648
0.145 0.015 -0.0162911 -0.000473871 -8.03387e-05 1.69337
0.15 0.015 -0.0159176 -0.000354006 -7.82881e-05 1.66091
0.155 0.015 -0.0156495 -0.000248327 -7.67984e-05 1.63799
0.16 0.015 -0.015475 -0.000154699 -7.58046e-05 1.62361
0.165 0.015 -0.0153839 -7.13153e-05 -7.52512e-05 1.61693
0.17 0.015 -0.0153678 3.3494e-06 -7.50912e-05 1.61721
0.175 0.015 -0.0154191 7.05841e-05 -7.52845e-05 1.62378
0.18 0.015 -0.0155315 0.000131477 -7.57969e-05 1.63608
0.185 0.015 -0.0156995 0.000186943 -7.65991e-05 1.65362
0.19 0.015 -0.0159185 0.000237756 -7.76661e-05 1.67594
0.195 0.015 -0.0161843 0.000284563 -7.89765e-05 1.70267
0.2 0.015 -0.0164933 0.000327906 -8.05116e-05 1.73347
0.205 0.015 -0.0168425 0.000368238 -8.22554e-05 1.76803
0.21 0.015 -0.0172292 0.000405936 -8.41938e-05 1.80608
0.215 0.015 -0.0176508 0.000441313 -8.63146e-05 1.84738
0.22 0.015 -0.0181052 0.000474625 -8.86068e-05 1.89171
0.225 0.015 -0.0185906 0.000506081 -9.10608e-05 1.93887
0.23 0.015 -0.0191051 0.000535853 -9.36675e-05 1.98867
0.235 0.015 -0.019647 0.000564075 -9.64192e-05 2.04095
0.24 0.015 -0.020215 0.000590855 -9.93082e-05 2.09554
0.245 0.015 -0.0208075 0.000616276 -0.000102328 2.15228
0.25 0.015 -0.0214232 0.000640399 -0.000105471 2.21105
0.255 0.015 -0.0220608 0.000663271 -0.000108732 2.27168
0.26 0.015 -0.022719 0.000684919 -0.000112104 2.33406
0.265 0.015 -0.0233966 0.000705362 -0.000115581 2.39803
0.27 0.015 -0.0240923 0.000724605 -0.000119157 2.46348
0.275 0.015 -0.0248049 0.000742648 -0.000122827 2.53027
0.28 0.015 -0.0255332 0.000759479 -0.000126584 2.59828
0.285 0.015 -0.026276 0.000775084 -0.000130422 2.66736
0.29 0.015 -0.0270319 0.000789442 -0.000134335 2.73739
0.295 0.015 -0.0277997 0.000802528 -0.000138316 2.80825
0.3 0.015 -0.028578 0.000814315 -0.00014236 2.87978
0.305 0.015 -0.0293657 0.000824773 -0.000146459 2.95188
0.31 0.015 -0.0301613 0.00083387 -0.000150608 3.02438
0.315 0.015 -0.0309635 0.000841574 -0.000154798 3.09717
0.32 0.015 -0.0317708 0.000847851 -0.000159024 3.17011
0.325 0.015 -0.0325818 0.000852668 -0.000163277 3.24305
0.33 0.015 -0.0333951 0.000855994 -0.000167551 3.31585
0.335 0.015 -0.0342093 0.000857796 -0.000171837 3.38838
0.34 0.015 -0.0350227 0.000858044 -0.000176129 3.46049
0.345 0.015 -0.0358339 0.000856711 -0.000180418 3.53204
0.35 0.015 -0.0366414 0.000853769 -0.000184696 3.60289
0.355 0.015 -0.0374435 0.000849195 -0.000188956 3.67289
0.36 0.015 -0.0382388 0.000842968 -0.000193188 3.74191
0.365 0.015 -0.0390256 0.000835068 -0.000197386 3.8098
0.37 0.015 -0.0398023 0.000825482 -0.00020154 3.87641
0.375 0.015 -0.0405673 0.000814198 -0.000205641 3.94162
0.38 0.015 -0.0413191 0.000801206 -0.000209682 4.00527
0.385 0.015 -0.042056 0.000786503 -0.000213654 4.06724
0.39 0.015 -0.0427764 0.000770089 -0.000217547 4.12738
0.395 0.015 -0.0434788 0.000751966 -0.000221355 4.18557
0.4 0.015 -0.0441616 0.000732144 -0.000225068 4.24167
0.405 0.015 -0.0448231 0.000710634 -0.000228677 4.29555
0.41 0.015 -0.045462 0.000687454 -0.000232175 4.3471
0.415 0.015 -0.0460766 0.000662623 -0.000235552 4.39618
0.42 0.015 -0.0466654 0.000636169 -0.000238801 4.44269
0.425 0.015 -0.0472272 0.000608121 -0.000241914 4.48651
0.43 0.015 -0.0477603 0.000578515 -0.000244883 4.52753
0.435 0.015 -0.0482634 0.00054739 -0.0002477 4.56565
0.44 0.015 -0.0487353 0.000514792 -0.000250358 4.60077
0.445 0.015 -0.0491746 0.000480768 -0.000252849 4.6328
0.45 0.015 -0.0495801 0.000445374 -0.000255166 4.66164
0.455 0.015 -0.0499507 0.000408667 -0.000257304 4.68723
0.46 0.015 -0.0502852 0.00037071 -0.000259254 4.70948
0.465 0.015 -0.0505825 0.00033157 -0.000261011 4.72832
0.47 0.015 -0.0508418 0.00029132 -0.00026257 4.74369
0.475 0.015 -0.0510621 0.000250036 -0.000263926 4.75554
0.48 0.015 -0.0512426 0.000207797 -0.000265072 4.76381
0.485 0.015 -0.0513825 0.000164687 -0.000266004 4.76847
0.49 0.015 -0.0514811 0.000120795 -0.00026672 4.76947
0.495 0.015 -0.051538 7.62117e-05 -0.000267213 4.7668
0.5 0.015 -0.0515525 3.10327e-05 -0.000267483 4.76043
0.505 0.015 -0.0515243 -1.46441e-05 -0.000267525 4.75035
0.51 0.015 -0.0514531 -6.07176e-05 -0.000267337 4.73656
0.515 0.015 -0.0513386 -0.000107084 -0.000266919 4.71905
0.52 0.015 -0.0511808 -0.000153636 -0.000266268 4.69785
0.525 0.015 -0.0509795 -0.000200266 -0.000265383 4.67296
0.53 0.015 -0.0507349 -0.000246864 -0.000264266 4.64442
0.535 0.015 -0.0504472 -0.000293316 -0.000262916 4.61225
0.54 0.015 -0.0501166 -0.000339512 -0.000261334 4.57651
0.545 0.015 -0.0497435 -0.000385336 -0.000259522 4.53724
0.55 0.015 -0.0493283 -0.000430673 -0.000257482 4.49449
0.555 0.015 -0.0488718 -0.000475411 -0.000255216 4.44834
0.56 0.015 -0.0483744 -0.000519435 -0.000252729 4.39885
0.565 0.015 -0.0478371 -0.000562632 -0.000250023 4.34611
0.57 0.015 -0.0472607 -0.000604889 -0.000247104 4.29019
0.575 0.015 -0.0466461 -0.000646097 -0.000243975 4.2312
0.58 0.015 -0.0459945 -0.000686147 -0.000240644 4.16924
0.585 0.015 -0.0453071 -0.000724935 -0.000237115 4.1044
0.59 0.015 -0.0445849 -0.000762357 -0.000233395 4.0368
0.595 0.015 -0.0438295 -0.000798316 -0.000229492 3.96657
0.6 0.015 -0.0430422 -0.000832715 -0.000225413 3.89382
0.605 0.015 -0.0422245 -0.000865464 -0.000221166 3.81868
0.61 0.015 -0.0413781 -0.000896478 -0.00021676 3.7413
0.615 0.015 -0.0405045 -0.000925676 -0.000212203 3.6618
0.62 0.015 -0.0396055 -0.000952983 -0.000207504 3.58033
0.625 0.015 -0.0386828 -0.000978331 -0.000202674 3.49704
0.63 0.015 -0.0377384 -0.00100166 -0.000197722 3.41208
0.635 0.015 -0.036774 -0.00102291 -0.000192658 3.3256
0.64 0.015 -0.0357916 -0.00104203 -0.000187494 3.23776
0.645 0.015 -0.0347932 -0.00105899 -0.000182239 3.14872
0.65 0.015 -0.0337808 -0.00107375 -0.000176905 3.05864
0.655 0.015 -0.0327563 -0.00108628 -0.000171502 2.96768
0.66 0.015 -0.0317218 -0.00109656 -0.000166043 2.876
0.665 0.015 -0.0306794 -0.0011046 -0.000160538 2.78376
0.67 0.015 -0.0296311 -0.00111038 -0.000154998 2.69113
0.675 0.015 -0.0285789 -0.00111391 -0.000149435 2.59827
0.68 0.015 -0.027525 -0.00111521 -0.00014386 2.50535
0.685 0.015 -0.0264712 -0.0011143 -0.000138283 2.41251
0.69 0.015 -0.0254196 -0.00111121 -0.000132717 2.31992
0.695 0.015 -0.0243722 -0.00110597 -0.000127172 2.22774
0.7 0.015 -0.0233308 -0.00109865 -0.000121658 2.13611
0.705 0.015 -0.0222975 -0.00108928 -0.000116186 2.04519
0.71 0.015 -0.0212739 -0.00107793 -0.000110766 1.95512
0.715 0.015 -0.0202618 -0.00106467 -0.000105407 1.86604
0.72 0.015 -0.019263 -0.00104957 -0.00010012 1.77808
0.725 0.015 -0.0182791 -0.0010327 -9.49122e-05 1.69139
0.73 0.015 -0.0173117 -0.00101417 -8.97932e-05 1.60608
0.735 0.015 -0.0163623 -0.000994042 -8.4771e-05 1.52227
0.74 0.015 -0.0154322 -0.000972428 -7.98532e-05 1.44009
0.745 0.015 -0.0145228 -0.00094942 -7.5047e-05 1.35963
0.75 0.015 -0.0136353 -0.000925121 -7.03593e-05 1.28101
0.755 0.015 -0.012771 -0.000899634 -6.57961e-05 1.20431
0.76 0.015 -0.0119307 -0.000873065 -6.13632e-05 1.12962
0.765 0.015 -0.0111155 -0.000845523 -5.70657e-05 1.05703
0.77 0.015 -0.0103263 -0.000817117 -5.29082e-05 0.986604
0.775 0.015 -0.00956371 -0.000787956 -4.88947e-05 0.918414
0.78 0.015 -0.00882852 -0.000758148 -4.50288e-05 0.852518
0.785 0.015 -0.00812126 -0.000727802 -4.13134e-05 0.788968
0.79 0.015 -0.0074424 -0.000697026 -3.77509e-05 0.727807
0.795 0.015 -0.0067923 -0.000665925 -3.43432e-05 0.669072
0.8 0.015 -0.00617126 -0.000634601 -3.10917e-05 0.612794
0.805 0.015 -0.00557945 -0.000603154 -2.79972e-05 0.558993
0.81 0.015 -0.00501697 -0.000571682 -2.50602e-05 0.507686
0.815 0.015 -0.00448384 -0.000540278 -2.22804e-05 0.45888
0.82 0.015 -0.00397998 -0.000509031 -1.96574e-05 0.412576
0.825 0.015 -0.00350524 -0.000478026 -1.71901e-05 0.368769
0.83 0.015 -0.00305939 -0.000447344 -1.48771e-05 0.327448