Title=" Lid Driven Flow"
VARIABLES="X","Y","U","V","psi","xi"
ZONE T= "BOX", I= 257, J=257, F=POINT
0 0 0 0 -306.135 0
0.00390625 0 0 0 0 0
0.0078125 0 0 0 0 0
0.0117188 0 0 0 0 -416.842
0.015625 0 0 0 0 -326.39
0.0195313 0 0 0 0 -259.804
0.0234375 0 0 0 0 -212.831
0.0273438 0 0 0 0 -179.548
0.03125 0 0 0 0 -155.476
0.0351563 0 0 0 0 -137.597
0.0390625 0 0 0 0 -123.943
0.0429688 0 0 0 0 -113.23
0.046875 0 0 0 0 -104.615
0.0507813 0 0 0 0 -97.5333
0.0546875 0 0 0 0 -91.6007
0.0585938 0 0 0 0 -86.5487
0.0625 0 0 0 0 -82.1859
0.0664063 0 0 0 0 -78.3729
0.0703125 0 0 0 0 -75.0058
0.0742188 0 0 0 0 -72.0061
0.078125 0 0 0 0 -69.3129
0.0820313 0 0 0 0 -66.8785
0.0859375 0 0 0 0 -64.6648
0.0898438 0 0 0 0 -62.6412
0.09375 0 0 0 0 -60.7826
0.0976563 0 0 0 0 -59.0682
0.101563 0 0 0 0 -57.4808
0.105469 0 0 0 0 -56.0059
0.109375 0 0 0 0 -54.631
0.113281 0 0 0 0 -53.3457
0.117188 0 0 0 0 -52.1409
0.121094 0 0 0 0 -51.0087
0.125 0 0 0 0 -49.9424
0.128906 0 0 0 0 -48.9358
0.132813 0 0 0 0 -47.9839
0.136719 0 0 0 0 -47.082
0.140625 0 0 0 0 -46.2258
0.144531 0 0 0 0 -45.4118
0.148438 0 0 0 0 -44.6368
0.152344 0 0 0 0 -43.8977
0.15625 0 0 0 0 -43.1919
0.160156 0 0 0 0 -42.5171
0.164063 0 0 0 0 -41.871
0.167969 0 0 0 0 -41.2519
0.171875 0 0 0 0 -40.6577
0.175781 0 0 0 0 -40.0871
0.179688 0 0 0 0 -39.5384
0.183594 0 0 0 0 -39.0103
0.1875 0 0 0 0 -38.5016
0.191406 0 0 0 0 -38.0112
0.195313 0 0 0 0 -37.5379
0.199219 0 0 0 0 -37.0808
0.203125 0 0 0 0 -36.6391
0.207031 0 0 0 0 -36.2119
0.210938 0 0 0 0 -35.7984
0.214844 0 0 0 0 -35.3979
0.21875 0 0 0 0 -35.0097
0.222656 0 0 0 0 -34.6333
0.226563 0 0 0 0 -34.268
0.230469 0 0 0 0 -33.9133
0.234375 0 0 0 0 -33.5688
0.238281 0 0 0 0 -33.2339
0.242188 0 0 0 0 -32.9082
0.246094 0 0 0 0 -32.5912
0.25 0 0 0 0 -32.2827
0.253906 0 0 0 0 -31.9822
0.257813 0 0 0 0 -31.6893
0.261719 0 0 0 0 -31.4039
0.265625 0 0 0 0 -31.1254
0.269531 0 0 0 0 -30.8538
0.273438 0 0 0 0 -30.5886
0.277344 0 0 0 0 -30.3297
0.28125 0 0 0 0 -30.0767
0.285156 0 0 0 0 -29.8295
0.289063 0 0 0 0 -29.5878
0.292969 0 0 0 0 -29.3515
0.296875 0 0 0 0 -29.1202
0.300781 0 0 0 0 -28.894
0.304688 0 0 0 0 -28.6724
0.308594 0 0 0 0 -28.4555
0.3125 0 0 0 0 -28.2429
0.316406 0 0 0 0 -28.0347
0.320313 0 0 0 0 -27.8305
0.324219 0 0 0 0 -27.6303
0.328125 0 0 0 0 -27.434
0.332031 0 0 0 0 -27.2413
0.335938 0 0 0 0 -27.0523
0.339844 0 0 0 0 -26.8667
0.34375 0 0 0 0 -26.6845
0.347656 0 0 0 0 -26.5055
0.351563 0 0 0 0 -26.3296
0.355469 0 0 0 0 -26.1568
0.359375 0 0 0 0 -25.9869
0.363281 0 0 0 0 -25.8198
0.367188 0 0 0 0 -25.6555
0.371094 0 0 0 0 -25.4938
0.375 0 0 0 0 -25.3348
0.378906 0 0 0 0 -25.1782
0.382813 0 0 0 0 -25.024
0.386719 0 0 0 0 -24.8722
0.390625 0 0 0 0 -24.7226
0.394531 0 0 0 0 -24.5753
0.398438 0 0 0 0 -24.43
0.402344 0 0 0 0 -24.2868
0.40625 0 0 0 0 -24.1456
0.410156 0 0 0 0 -24.0064
0.414063 0 0 0 0 -23.8689
0.417969 0 0 0 0 -23.7333
0.421875 0 0 0 0 -23.5994
0.425781 0 0 0 0 -23.4672
0.429688 0 0 0 0 -23.3366
0.433594 0 0 0 0 -23.2076
0.4375 0 0 0 0 -23.0801
0.441406 0 0 0 0 -22.954
0.445313 0 0 0 0 -22.8293
0.449219 0 0 0 0 -22.706
0.453125 0 0 0 0 -22.5839
0.457031 0 0 0 0 -22.4631
0.460938 0 0 0 0 -22.3435
0.464844 0 0 0 0 -22.2249
0.46875 0 0 0 0 -22.1075
0.472656 0 0 0 0 -21.991
0.476563 0 0 0 0 -21.8755
0.480469 0 0 0 0 -21.761
0.484375 0 0 0 0 -21.6472
0.488281 0 0 0 0 -21.5343
0.492188 0 0 0 0 -21.4221
0.496094 0 0 0 0 -21.3106
0.5 0 0 0 0 -21.1997
0.503906 0 0 0 0 -21.0894
0.507813 0 0 0 0 -20.9796
0.511719 0 0 0 0 -20.8702
0.515625 0 0 0 0 -20.7613
0.519531 0 0 0 0 -20.6526
0.523438 0 0 0 0 -20.5443
0.527344 0 0 0 0 -20.4361
0.53125 0 0 0 0 -20.3281
0.535156 0 0 0 0 -20.2201
0.539063 0 0 0 0 -20.1122
0.542969 0 0 0 0 -20.0042
0.546875 0 0 0 0 -19.896
0.550781 0 0 0 0 -19.7877
0.554688 0 0 0 0 -19.6791
0.558594 0 0 0 0 -19.5701
0.5625 0 0 0 0 -19.4608
0.566406 0 0 0 0 -19.351
0.570313 0 0 0 0 -19.2406
0.574219 0 0 0 0 -19.1296
0.578125 0 0 0 0 -19.018
0.582031 0 0 0 0 -18.9056
0.585938 0 0 0 0 -18.7923
0.589844 0 0 0 0 -18.6783
0.59375 0 0 0 0 -18.5632
0.597656 0 0 0 0 -18.4472
0.601563 0 0 0 0 -18.3302
0.605469 0 0 0 0 -18.2121
0.609375 0 0 0 0 -18.0928
0.613281 0 0 0 0 -17.9724
0.617188 0 0 0 0 -17.8508
0.621094 0 0 0 0 -17.7281
0.625 0 0 0 0 -17.6041
0.628906 0 0 0 0 -17.4789
0.632813 0 0 0 0 -17.3526
0.636719 0 0 0 0 -17.2251
0.640625 0 0 0 0 -17.0965
0.644531 0 0 0 0 -16.9668
0.648438 0 0 0 0 -16.8362
0.652344 0 0 0 0 -16.7046
0.65625 0 0 0 0 -16.5723
0.660156 0 0 0 0 -16.4394
0.664063 0 0 0 0 -16.3059
0.667969 0 0 0 0 -16.1721
0.671875 0 0 0 0 -16.0381
0.675781 0 0 0 0 -15.9043
0.679688 0 0 0 0 -15.7707
0.683594 0 0 0 0 -15.6377
0.6875 0 0 0 0 -15.5056
0.691406 0 0 0 0 -15.3746
0.695313 0 0 0 0 -15.2451
0.699219 0 0 0 0 -15.1174
0.703125 0 0 0 0 -14.9919
0.707031 0 0 0 0 -14.8691
0.710938 0 0 0 0 -14.7493
0.714844 0 0 0 0 -14.6329
0.71875 0 0 0 0 -14.5204
0.722656 0 0 0 0 -14.4123
0.726563 0 0 0 0 -14.3091
0.730469 0 0 0 0 -14.2112
0.734375 0 0 0 0 -14.1192
0.738281 0 0 0 0 -14.0335
0.742188 0 0 0 0 -13.9547
0.746094 0 0 0 0 -13.8833
0.75 0 0 0 0 -13.8199
0.753906 0 0 0 0 -13.765
0.757813 0 0 0 0 -13.719
0.761719 0 0 0 0 -13.6825
0.765625 0 0 0 0 -13.6561
0.769531 0 0 0 0 -13.6402
0.773438 0 0 0 0 -13.6353
0.777344 0 0 0 0 -13.642
0.78125 0 0 0 0 -13.6608
0.785156 0 0 0 0 -13.6921
0.789063 0 0 0 0 -13.7364
0.792969 0 0 0 0 -13.7943
0.796875 0 0 0 0 -13.8663
0.800781 0 0 0 0 -13.9529
0.804688 0 0 0 0 -14.0546
0.808594 0 0 0 0 -14.1719
0.8125 0 0 0 0 -14.3056
0.816406 0 0 0 0 -14.4561
0.820313 0 0 0 0 -14.6242
0.824219 0 0 0 0 -14.8107
0.828125 0 0 0 0 -15.0162
0.832031 0 0 0 0 -15.2418
0.835938 0 0 0 0 -15.4883
0.839844 0 0 0 0 -15.757
0.84375 0 0 0 0 -16.0489
0.847656 0 0 0 0 -16.3654
0.851563 0 0 0 0 -16.708
0.855469 0 0 0 0 -17.0785
0.859375 0 0 0 0 -17.4785
0.863281 0 0 0 0 -17.9103
0.867188 0 0 0 0 -18.3759
0.871094 0 0 0 0 -18.878
0.875 0 0 0 0 -19.4192
0.878906 0 0 0 0 -20.0026
0.882813 0 0 0 0 -20.6314
0.886719 0 0 0 0 -21.3092
0.890625 0 0 0 0 -22.0399
0.894531 0 0 0 0 -22.8278
0.898438 0 0 0 0 -23.6774
0.902344 0 0 0 0 -24.5936
0.90625 0 0 0 0 -25.5819
0.910156 0 0 0 0 -26.6482
0.914063 0 0 0 0 -27.7988
0.917969 0 0 0 0 -29.0407
0.921875 0 0 0 0 -30.3819
0.925781 0 0 0 0 -31.831
0.929688 0 0 0 0 -33.3979
0.933594 0 0 0 0 -35.0941
0.9375 0 0 0 0 -36.9333
0.941406 0 0 0 0 -38.9318
0.945313 0 0 0 0 -41.1098
0.949219 0 0 0 0 -43.4929
0.953125 0 0 0 0 -46.114
0.957031 0 0 0 0 -49.0167
0.960938 0 0 0 0 -52.2601
0.964844 0 0 0 0 -55.9259
0.96875 0 0 0 0 -60.1295
0.972656 0 0 0 0 -65.0393
0.976563 0 0 0 0 -70.9077
0.980469 0 0 0 0 -78.1289
0.984375 0 0 0 0 -87.3493
0.988281 0 0 0 0 -99.7057
0.992188 0 0 0 0 -117.395
0.996094 0 0 0 0 -145.237
1 0 0 0 0 -195.773
0 0.00390625 0 0 0 0
0.00390625 0.00390625 0 0 0 0
0.0078125 0.00390625 0 0 0 -0.000299579
0.0117188 0.00390625 0 0 0 -0.000744033
0.015625 0.00390625 0 0 0 -0.00101981
0.0195313 0.00390625 0 0 0 -0.000969878
0.0234375 0.00390625 0 0 0 -0.000531449
0.0273438 0.00390625 0 0 0 0.000308406
0.03125 0.00390625 0 0 0 0.00153741
0.0351563 0.00390625 0 0 0 0.00313101
0.0390625 0.00390625 0 0 0 0.00505914
0.0429688 0.00390625 0 0 0 0.00728987
0.046875 0.00390625 0 0 0 0.00979143
0.0507813 0.00390625 0 0 0 0.0125332
0.0546875 0.00390625 0 0 0 0.0154866
0.0585938 0.00390625 0 0 0 0.0186247
0.0625 0.00390625 0 0 0 0.0219234
0.0664063 0.00390625 0 0 0 0.0253605
0.0703125 0.00390625 0 0 0 0.0289159
0.0742188 0.00390625 0 0 0 0.032572
0.078125 0.00390625 0 0 0 0.0363127
0.0820313 0.00390625 0 0 0 0.0401242
0.0859375 0.00390625 0 0 0 0.0439941
0.0898438 0.00390625 0 0 0 0.0479115
0.09375 0.00390625 0 0 0 0.0518672
0.0976563 0.00390625 0 0 0 0.0558529
0.101563 0.00390625 0 0 0 0.0598617
0.105469 0.00390625 0 0 0 0.0638876
0.109375 0.00390625 0 0 0 0.0679254
0.113281 0.00390625 0 0 0 0.0719708
0.117188 0.00390625 0 0 0 0.0760202
0.121094 0.00390625 0 0 0 0.0800703
0.125 0.00390625 0 0 0 0.0841188
0.128906 0.00390625 0 0 0 0.0881632
0.132813 0.00390625 0 0 0 0.092202
0.136719 0.00390625 0 0 0 0.0962334
0.140625 0.00390625 0 0 0 0.100256
0.144531 0.00390625 0 0 0 0.10427
0.148438 0.00390625 0 0 0 0.108273
0.152344 0.00390625 0 0 0 0.112265
0.15625 0.00390625 0 0 0 0.116245
0.160156 0.00390625 0 0 0 0.120212
0.164063 0.00390625 0 0 0 0.124167
0.167969 0.00390625 0 0 0 0.128109
0.171875 0.00390625 0 0 0 0.132037
0.175781 0.00390625 0 0 0 0.135952
0.179688 0.00390625 0 0 0 0.139852
0.183594 0.00390625 0 0 0 0.143737
0.1875 0.00390625 0 0 0 0.147608
0.191406 0.00390625 0 0 0 0.151463
0.195313 0.00390625 0 0 0 0.155303
0.199219 0.00390625 0 0 0 0.159127
0.203125 0.00390625 0 0 0 0.162935
0.207031 0.00390625 0 0 0 0.166726
0.210938 0.00390625 0 0 0 0.1705
0.214844 0.00390625 0 0 0 0.174257
0.21875 0.00390625 0 0 0 0.177997
0.222656 0.00390625 0 0 0 0.181719
0.226563 0.00390625 0 0 0 0.185422
0.230469 0.00390625 0 0 0 0.189106
0.234375 0.00390625 0 0 0 0.192771
0.238281 0.00390625 0 0 0 0.196417
0.242188 0.00390625 0 0 0 0.200043
0.246094 0.00390625 0 0 0 0.203648
0.25 0.00390625 0 0 0 0.207232
0.253906 0.00390625 0 0 0 0.210795
0.257813 0.00390625 0 0 0 0.214336
0.261719 0.00390625 0 0 0 0.217855
0.265625 0.00390625 0 0 0 0.221351
0.269531 0.00390625 0 0 0 0.224824
0.273438 0.00390625 0 0 0 0.228273
0.277344 0.00390625 0 0 0 0.231697
0.28125 0.00390625 0 0 0 0.235097
0.285156 0.00390625 0 0 0 0.238472
0.289063 0.00390625 0 0 0 0.241821
0.292969 0.00390625 0 0 0 0.245143
0.296875 0.00390625 0 0 0 0.248439
0.300781 0.00390625 0 0 0 0.251707
0.304688 0.00390625 0 0 0 0.254948
0.308594 0.00390625 0 0 0 0.25816
0.3125 0.00390625 0 0 0 0.261342
0.316406 0.00390625 0 0 0 0.264496
0.320313 0.00390625 0 0 0 0.267618
0.324219 0.00390625 0 0 0 0.270711
0.328125 0.00390625 0 0 0 0.273771
0.332031 0.00390625 0 0 0 0.2768
0.335938 0.00390625 0 0 0 0.279796
0.339844 0.00390625 0 0 0 0.282759
0.34375 0.00390625 0 0 0 0.285689
0.347656 0.00390625 0 0 0 0.288583
0.351563 0.00390625 0 0 0 0.291443
0.355469 0.00390625 0 0 0 0.294267
0.359375 0.00390625 0 0 0 0.297055
0.363281 0.00390625 0 0 0 0.299806
0.367188 0.00390625 0 0 0 0.302519
0.371094 0.00390625 0 0 0 0.305194
0.375 0.00390625 0 0 0 0.30783
0.378906 0.00390625 0 0 0 0.310427
0.382813 0.00390625 0 0 0 0.312983
0.386719 0.00390625 0 0 0 0.315498
0.390625 0.00390625 0 0 0 0.317972
0.394531 0.00390625 0 0 0 0.320403
0.398438 0.00390625 0 0 0 0.322792
0.402344 0.00390625 0 0 0 0.325136
0.40625 0.00390625 0 0 0 0.327437
0.410156 0.00390625 0 0 0 0.329692
0.414063 0.00390625 0 0 0 0.331901
0.417969 0.00390625 0 0 0 0.334064
0.421875 0.00390625 0 0 0 0.33618
0.425781 0.00390625 0 0 0 0.338248
0.429688 0.00390625 0 0 0 0.340267
0.433594 0.00390625 0 0 0 0.342236
0.4375 0.00390625 0 0 0 0.344156
0.441406 0.00390625 0 0 0 0.346025
0.445313 0.00390625 0 0 0 0.347842
0.449219 0.00390625 0 0 0 0.349607
0.453125 0.00390625 0 0 0 0.351319
0.457031 0.00390625 0 0 0 0.352977
0.460938 0.00390625 0 0 0 0.35458
0.464844 0.00390625 0 0 0 0.356128
0.46875 0.00390625 0 0 0 0.357621
0.472656 0.00390625 0 0 0 0.359056
0.476563 0.00390625 0 0 0 0.360434
0.480469 0.00390625 0 0 0 0.361754
0.484375 0.00390625 0 0 0 0.363015
0.488281 0.00390625 0 0 0 0.364216
0.492188 0.00390625 0 0 0 0.365357
0.496094 0.00390625 0 0 0 0.366437
0.5 0.00390625 0 0 0 0.367455
0.503906 0.00390625 0 0 0 0.368411
0.507813 0.00390625 0 0 0 0.369304
0.511719 0.00390625 0 0 0 0.370132
0.515625 0.00390625 0 0 0 0.370896
0.519531 0.00390625 0 0 0 0.371595
0.523438 0.00390625 0 0 0 0.372227
0.527344 0.00390625 0 0 0 0.372793
0.53125 0.00390625 0 0 0 0.373292
0.535156 0.00390625 0 0 0 0.373723
0.539063 0.00390625 0 0 0 0.374085
0.542969 0.00390625 0 0 0 0.374378
0.546875 0.00390625 0 0 0 0.374601
0.550781 0.00390625 0 0 0 0.374753
0.554688 0.00390625 0 0 0 0.374835
0.558594 0.00390625 0 0 0 0.374845
0.5625 0.00390625 0 0 0 0.374782
0.566406 0.00390625 0 0 0 0.374647
0.570313 0.00390625 0 0 0 0.374439
0.574219 0.00390625 0 0 0 0.374157
0.578125 0.00390625 0 0 0 0.3738
0.582031 0.00390625 0 0 0 0.373369
0.585938 0.00390625 0 0 0 0.372862
0.589844 0.00390625 0 0 0 0.37228
0.59375 0.00390625 0 0 0 0.371621
0.597656 0.00390625 0 0 0 0.370886
0.601563 0.00390625 0 0 0 0.370073
0.605469 0.00390625 0 0 0 0.369184
0.609375 0.00390625 0 0 0 0.368217
0.613281 0.00390625 0 0 0 0.367171
0.617188 0.00390625 0 0 0 0.366048
0.621094 0.00390625 0 0 0 0.364845
0.625 0.00390625 0 0 0 0.363564
0.628906 0.00390625 0 0 0 0.362204
0.632813 0.00390625 0 0 0 0.360764
0.636719 0.00390625 0 0 0 0.359245
0.640625 0.00390625 0 0 0 0.357646
0.644531 0.00390625 0 0 0 0.355968
0.648438 0.00390625 0 0 0 0.354209
0.652344 0.00390625 0 0 0 0.352371
0.65625 0.00390625 0 0 0 0.350452
0.660156 0.00390625 0 0 0 0.348454
0.664063 0.00390625 0 0 0 0.346376
0.667969 0.00390625 0 0 0 0.344218
0.671875 0.00390625 0 0 0 0.341979
0.675781 0.00390625 0 0 0 0.339662
0.679688 0.00390625 0 0 0 0.337264
0.683594 0.00390625 0 0 0 0.334788
0.6875 0.00390625 0 0 0 0.332232
0.691406 0.00390625 0 0 0 0.329597
0.695313 0.00390625 0 0 0 0.326883
0.699219 0.00390625 0 0 0 0.324091
0.703125 0.00390625 0 0 0 0.321221
0.707031 0.00390625 0 0 0 0.318273
0.710938 0.00390625 0 0 0 0.315248
0.714844 0.00390625 0 0 0 0.312146
0.71875 0.00390625 0 0 0 0.308968
0.722656 0.00390625 0 0 0 0.305713
0.726563 0.00390625 0 0 0 0.302384
0.730469 0.00390625 0 0 0 0.298979
0.734375 0.00390625 0 0 0 0.295501
0.738281 0.00390625 0 0 0 0.291948
0.742188 0.00390625 0 0 0 0.288323
0.746094 0.00390625 0 0 0 0.284626
0.75 0.00390625 0 0 0 0.280857
0.753906 0.00390625 0 0 0 0.277017
0.757813 0.00390625 0 0 0 0.273107
0.761719 0.00390625 0 0 0 0.269128
0.765625 0.00390625 0 0 0 0.265081
0.769531 0.00390625 0 0 0 0.260966
0.773438 0.00390625 0 0 0 0.256784
0.777344 0.00390625 0 0 0 0.252537
0.78125 0.00390625 0 0 0 0.248225
0.785156 0.00390625 0 0 0 0.243849
0.789063 0.00390625 0 0 0 0.239411
0.792969 0.00390625 0 0 0 0.23491
0.796875 0.00390625 0 0 0 0.230349
0.800781 0.00390625 0 0 0 0.225728
0.804688 0.00390625 0 0 0 0.221049
0.808594 0.00390625 0 0 0 0.216312
0.8125 0.00390625 0 0 0 0.211519
0.816406 0.00390625 0 0 0 0.20667
0.820313 0.00390625 0 0 0 0.201768
0.824219 0.00390625 0 0 0 0.196813
0.828125 0.00390625 0 0 0 0.191806
0.832031 0.00390625 0 0 0 0.18675
0.835938 0.00390625 0 0 0 0.181645
0.839844 0.00390625 0 0 0 0.176492
0.84375 0.00390625 0 0 0 0.171294
0.847656 0.00390625 0 0 0 0.166051
0.851563 0.00390625 0 0 0 0.160766
0.855469 0.00390625 0 0 0 0.15544
0.859375 0.00390625 0 0 0 0.150076
0.863281 0.00390625 0 0 0 0.144675
0.867188 0.00390625 0 0 0 0.13924
0.871094 0.00390625 0 0 0 0.133773
0.875 0.00390625 0 0 0 0.128277
0.878906 0.00390625 0 0 0 0.122755
0.882813 0.00390625 0 0 0 0.117211
0.886719 0.00390625 0 0 0 0.111649
0.890625 0.00390625 0 0 0 0.106072
0.894531 0.00390625 0 0 0 0.100487
0.898438 0.00390625 0 0 0 0.094899
0.902344 0.00390625 0 0 0 0.0893142
0.90625 0.00390625 0 0 0 0.0837399
0.910156 0.00390625 0 0 0 0.0781847
0.914063 0.00390625 0 0 0 0.0726579
0.917969 0.00390625 0 0 0 0.0671703
0.921875 0.00390625 0 0 0 0.0617338
0.925781 0.00390625 0 0 0 0.0563623
0.929688 0.00390625 0 0 0 0.051071
0.933594 0.00390625 0 0 0 0.0458773
0.9375 0.00390625 0 0 0 0.0408007
0.941406 0.00390625 0 0 0 0.0358628
0.945313 0.00390625 0 0 0 0.0310877
0.949219 0.00390625 0 0 0 0.0265023
0.953125 0.00390625 0 0 0 0.0221363
0.957031 0.00390625 0 0 0 0.0180221
0.960938 0.00390625 0 0 0 0.0141953
0.964844 0.00390625 0 0 0 0.0106942
0.96875 0.00390625 0 0 0 0.00755992
0.972656 0.00390625 0 0 0 0.00483547
0.976563 0.00390625 0 0 0 0.00256457
0.980469 0.00390625 0 0 0 0.000789305
0.984375 0.00390625 0 0 0 -0.000454478
0.988281 0.00390625 0 0 0 -0.00114592
0.992188 0.00390625 0 0 0 -0.00129629
0.996094 0.00390625 0 0 0 -0.000982406
1 0.00390625 0 0 0 -0.00040873
0 0.0078125 0 0 -0.00040873 0
0.00390625 0.0078125 0 0 0 -0.000299579
0.0078125 0.0078125 7.26789e-07 -7.26594e-07 2.28558e-09 -0.000144995
0.0117188 0.0078125 1.60115e-06 -7.03357e-07 5.67656e-09 8.5642e-06
0.015625 0.0078125 1.82208e-06 -2.20547e-07 7.78078e-09 0.00024977
0.0195313 0.0078125 9.51319e-07 4.76947e-07 7.4001e-09 0.00067709
0.0234375 0.0078125 -1.21563e-06 1.24839e-06 4.05551e-09 0.00135465
0.0273438 0.0078125 -4.74196e-06 2.02048e-06 -2.35168e-09 0.00231418
0.03125 0.0078125 -9.60871e-06 2.75661e-06 -1.17278e-08 0.00356471
0.0351563 0.0078125 -1.57508e-05 3.4394e-06 -2.38856e-08 0.00510089
0.0390625 0.0078125 -2.30789e-05 4.06166e-06 -3.85956e-08 0.0069088
0.0429688 0.0078125 -3.1492e-05 4.6217e-06 -5.56144e-08 0.00896973
0.046875 0.0078125 -4.08859e-05 5.12084e-06 -7.46994e-08 0.0112626
0.0507813 0.0078125 -5.11575e-05 5.56206e-06 -9.56175e-08 0.0137655
0.0546875 0.0078125 -6.22079e-05 5.94919e-06 -1.18149e-07 0.0164567
0.0585938 0.0078125 -7.39442e-05 6.2865e-06 -1.42091e-07 0.0193153
0.0625 0.0078125 -8.62799e-05 6.57837e-06 -1.67258e-07 0.0223215
0.0664063 0.0078125 -9.91358e-05 6.82915e-06 -1.93481e-07 0.0254567
0.0703125 0.0078125 -0.00011244 7.04303e-06 -2.20607e-07 0.028704
0.0742188 0.0078125 -0.000126127 7.22401e-06 -2.485e-07 0.032048
0.078125 0.0078125 -0.00014014 7.3758e-06 -2.7704e-07 0.0354745
0.0820313 0.0078125 -0.000154425 7.50184e-06 -3.06119e-07 0.0389711
0.0859375 0.0078125 -0.000168938 7.60531e-06 -3.35644e-07 0.0425265
0.0898438 0.0078125 -0.000183638 7.68908e-06 -3.65532e-07 0.0461307
0.09375 0.0078125 -0.00019849 7.75573e-06 -3.95711e-07 0.0497749
0.0976563 0.0078125 -0.000213462 7.80762e-06 -4.2612e-07 0.0534515
0.101563 0.0078125 -0.000228528 7.8468e-06 -4.56705e-07 0.0571536
0.105469 0.0078125 -0.000243666 7.87511e-06 -4.8742e-07 0.0608755
0.109375 0.0078125 -0.000258854 7.89417e-06 -5.18227e-07 0.0646122
0.113281 0.0078125 -0.000274077 7.90539e-06 -5.49091e-07 0.0683591
0.117188 0.0078125 -0.00028932 7.90999e-06 -5.79986e-07 0.0721126
0.121094 0.0078125 -0.000304571 7.90902e-06 -6.10887e-07 0.0758695
0.125 0.0078125 -0.00031982 7.9034e-06 -6.41774e-07 0.0796271
0.128906 0.0078125 -0.000335057 7.89389e-06 -6.72631e-07 0.0833831
0.132813 0.0078125 -0.000350275 7.88114e-06 -7.03445e-07 0.0871354
0.136719 0.0078125 -0.000365469 7.8657e-06 -7.34203e-07 0.0908825
0.140625 0.0078125 -0.000380633 7.84801e-06 -7.64896e-07 0.0946229
0.144531 0.0078125 -0.000395762 7.82846e-06 -7.95517e-07 0.0983554
0.148438 0.0078125 -0.000410854 7.80733e-06 -8.26057e-07 0.102079
0.152344 0.0078125 -0.000425905 7.78488e-06 -8.56513e-07 0.105793
0.15625 0.0078125 -0.000440912 7.7613e-06 -8.86879e-07 0.109496
0.160156 0.0078125 -0.000455874 7.73674e-06 -9.17151e-07 0.113188
0.164063 0.0078125 -0.000470787 7.71132e-06 -9.47325e-07 0.116869
0.167969 0.0078125 -0.000485651 7.68512e-06 -9.77399e-07 0.120537
0.171875 0.0078125 -0.000500463 7.65821e-06 -1.00737e-06 0.124193
0.175781 0.0078125 -0.000515223 7.63064e-06 -1.03723e-06 0.127835
0.179688 0.0078125 -0.000529928 7.60243e-06 -1.06699e-06 0.131464
0.183594 0.0078125 -0.000544578 7.57359e-06 -1.09663e-06 0.135079
0.1875 0.0078125 -0.000559171 7.54413e-06 -1.12616e-06 0.13868
0.191406 0.0078125 -0.000573706 7.51405e-06 -1.15558e-06 0.142266
0.195313 0.0078125 -0.000588181 7.48335e-06 -1.18487e-06 0.145838
0.199219 0.0078125 -0.000602596 7.452e-06 -1.21405e-06 0.149394
0.203125 0.0078125 -0.000616948 7.42e-06 -1.2431e-06 0.152934
0.207031 0.0078125 -0.000631237 7.38732e-06 -1.27203e-06 0.156459
0.210938 0.0078125 -0.000645462 7.35395e-06 -1.30082e-06 0.159967
0.214844 0.0078125 -0.00065962 7.31987e-06 -1.32949e-06 0.163459
0.21875 0.0078125 -0.00067371 7.28506e-06 -1.35802e-06 0.166933
0.222656 0.0078125 -0.000687731 7.2495e-06 -1.38641e-06 0.17039
0.226563 0.0078125 -0.000701682 7.21317e-06 -1.41467e-06 0.17383
0.230469 0.0078125 -0.000715561 7.17604e-06 -1.44278e-06 0.177251
0.234375 0.0078125 -0.000729365 7.13811e-06 -1.47074e-06 0.180653
0.238281 0.0078125 -0.000743095 7.09935e-06 -1.49856e-06 0.184037
0.242188 0.0078125 -0.000756748 7.05974e-06 -1.52622e-06 0.187401
0.246094 0.0078125 -0.000770321 7.01928e-06 -1.55372e-06 0.190746
0.25 0.0078125 -0.000783815 6.97793e-06 -1.58107e-06 0.19407
0.253906 0.0078125 -0.000797227 6.93568e-06 -1.60825e-06 0.197373
0.257813 0.0078125 -0.000810555 6.89253e-06 -1.63527e-06 0.200656
0.261719 0.0078125 -0.000823797 6.84845e-06 -1.66212e-06 0.203917
0.265625 0.0078125 -0.000836952 6.80342e-06 -1.68879e-06 0.207156
0.269531 0.0078125 -0.000850018 6.75744e-06 -1.71528e-06 0.210373
0.273438 0.0078125 -0.000862992 6.71049e-06 -1.7416e-06 0.213566
0.277344 0.0078125 -0.000875874 6.66256e-06 -1.76773e-06 0.216737
0.28125 0.0078125 -0.000888661 6.61362e-06 -1.79367e-06 0.219884
0.285156 0.0078125 -0.000901351 6.56368e-06 -1.81942e-06 0.223006
0.289063 0.0078125 -0.000913942 6.5127e-06 -1.84497e-06 0.226103
0.292969 0.0078125 -0.000926433 6.46069e-06 -1.87032e-06 0.229176
0.296875 0.0078125 -0.000938821 6.40763e-06 -1.89546e-06 0.232222
0.300781 0.0078125 -0.000951104 6.3535e-06 -1.9204e-06 0.235243
0.304688 0.0078125 -0.00096328 6.29829e-06 -1.94512e-06 0.238236
0.308594 0.0078125 -0.000975348 6.24199e-06 -1.96962e-06 0.241203
0.3125 0.0078125 -0.000987304 6.18459e-06 -1.99391e-06 0.244141
0.316406 0.0078125 -0.000999147 6.12607e-06 -2.01796e-06 0.247051
0.320313 0.0078125 -0.00101087 6.06642e-06 -2.04179e-06 0.249933
0.324219 0.0078125 -0.00102249 6.00563e-06 -2.06538e-06 0.252785
0.328125 0.0078125 -0.00103398 5.94368e-06 -2.08873e-06 0.255607
0.332031 0.0078125 -0.00104534 5.88057e-06 -2.11184e-06 0.258399
0.335938 0.0078125 -0.00105659 5.81628e-06 -2.1347e-06 0.261159
0.339844 0.0078125 -0.00106771 5.7508e-06 -2.15731e-06 0.263888
0.34375 0.0078125 -0.0010787 5.68411e-06 -2.17966e-06 0.266585
0.347656 0.0078125 -0.00108956 5.61621e-06 -2.20174e-06 0.26925
0.351563 0.0078125 -0.00110028 5.54709e-06 -2.22356e-06 0.271881
0.355469 0.0078125 -0.00111087 5.47672e-06 -2.24511e-06 0.274478
0.359375 0.0078125 -0.00112132 5.4051e-06 -2.26638e-06 0.277041
0.363281 0.0078125 -0.00113163 5.33222e-06 -2.28737e-06 0.279569
0.367188 0.0078125 -0.0011418 5.25807e-06 -2.30807e-06 0.282062
0.371094 0.0078125 -0.00115182 5.18263e-06 -2.32848e-06 0.284518
0.375 0.0078125 -0.0011617 5.1059e-06 -2.34859e-06 0.286938
0.378906 0.0078125 -0.00117142 5.02786e-06 -2.3684e-06 0.28932
0.382813 0.0078125 -0.001181 4.94851e-06 -2.3879e-06 0.291665
0.386719 0.0078125 -0.00119041 4.86783e-06 -2.40709e-06 0.29397
0.390625 0.0078125 -0.00119967 4.78582e-06 -2.42597e-06 0.296237
0.394531 0.0078125 -0.00120877 4.70246e-06 -2.44452e-06 0.298464
0.398438 0.0078125 -0.00121771 4.61775e-06 -2.46274e-06 0.30065
0.402344 0.0078125 -0.00122648 4.53167e-06 -2.48063e-06 0.302796
0.40625 0.0078125 -0.00123508 4.44422e-06 -2.49818e-06 0.304899
0.410156 0.0078125 -0.00124351 4.3554e-06 -2.51539e-06 0.306961
0.414063 0.0078125 -0.00125177 4.26518e-06 -2.53224e-06 0.308979
0.417969 0.0078125 -0.00125985 4.17358e-06 -2.54875e-06 0.310954
0.421875 0.0078125 -0.00126776 4.08057e-06 -2.56489e-06 0.312885
0.425781 0.0078125 -0.00127548 3.98615e-06 -2.58066e-06 0.314771
0.429688 0.0078125 -0.00128302 3.89033e-06 -2.59607e-06 0.316612
0.433594 0.0078125 -0.00129037 3.79308e-06 -2.6111e-06 0.318406
0.4375 0.0078125 -0.00129753 3.69442e-06 -2.62574e-06 0.320153
0.441406 0.0078125 -0.0013045 3.59433e-06 -2.64e-06 0.321854
0.445313 0.0078125 -0.00131128 3.49281e-06 -2.65386e-06 0.323506
0.449219 0.0078125 -0.00131786 3.38986e-06 -2.66733e-06 0.325109
0.453125 0.0078125 -0.00132424 3.28548e-06 -2.68039e-06 0.326663
0.457031 0.0078125 -0.00133042 3.17966e-06 -2.69304e-06 0.328167
0.460938 0.0078125 -0.00133639 3.07241e-06 -2.70527e-06 0.32962
0.464844 0.0078125 -0.00134215 2.96372e-06 -2.71709e-06 0.331022
0.46875 0.0078125 -0.0013477 2.8536e-06 -2.72847e-06 0.332372
0.472656 0.0078125 -0.00135304 2.74205e-06 -2.73943e-06 0.333669
0.476563 0.0078125 -0.00135816 2.62908e-06 -2.74994e-06 0.334913
0.480469 0.0078125 -0.00136306 2.51467e-06 -2.76001e-06 0.336103
0.484375 0.0078125 -0.00136775 2.39885e-06 -2.76963e-06 0.337238
0.488281 0.0078125 -0.0013722 2.28162e-06 -2.7788e-06 0.338318
0.492188 0.0078125 -0.00137643 2.16298e-06 -2.7875e-06 0.339342
0.496094 0.0078125 -0.00138043 2.04294e-06 -2.79574e-06 0.34031
0.5 0.0078125 -0.0013842 1.9215e-06 -2.80351e-06 0.341221
0.503906 0.0078125 -0.00138773 1.79869e-06 -2.8108e-06 0.342073
0.507813 0.0078125 -0.00139103 1.67451e-06 -2.81761e-06 0.342868
0.511719 0.0078125 -0.00139408 1.54896e-06 -2.82393e-06 0.343603
0.515625 0.0078125 -0.0013969 1.42208e-06 -2.82976e-06 0.344279
0.519531 0.0078125 -0.00139946 1.29386e-06 -2.83509e-06 0.344895
0.523438 0.0078125 -0.00140178 1.16432e-06 -2.83992e-06 0.345449
0.527344 0.0078125 -0.00140385 1.03348e-06 -2.84423e-06 0.345943
0.53125 0.0078125 -0.00140567 9.01367e-07 -2.84804e-06 0.346374
0.535156 0.0078125 -0.00140723 7.67985e-07 -2.85133e-06 0.346743
0.539063 0.0078125 -0.00140854 6.3336e-07 -2.85409e-06 0.347048
0.542969 0.0078125 -0.00140958 4.97513e-07 -2.85632e-06 0.34729
0.546875 0.0078125 -0.00141036 3.60467e-07 -2.85803e-06 0.347468
0.550781 0.0078125 -0.00141088 2.22245e-07 -2.85919e-06 0.347581
0.554688 0.0078125 -0.00141114 8.28733e-08 -2.85981e-06 0.347628
0.558594 0.0078125 -0.00141112 -5.76223e-08 -2.85989e-06 0.34761
0.5625 0.0078125 -0.00141083 -1.99214e-07 -2.85941e-06 0.347525
0.566406 0.0078125 -0.00141028 -3.41872e-07 -2.85838e-06 0.347374
0.570313 0.0078125 -0.00140944 -4.85567e-07 -2.85679e-06 0.347155
0.574219 0.0078125 -0.00140833 -6.30266e-07 -2.85464e-06 0.346869
0.578125 0.0078125 -0.00140694 -7.75937e-07 -2.85192e-06 0.346514
0.582031 0.0078125 -0.00140527 -9.22545e-07 -2.84863e-06 0.346091
0.585938 0.0078125 -0.00140332 -1.07005e-06 -2.84476e-06 0.345599
0.589844 0.0078125 -0.00140109 -1.21843e-06 -2.84032e-06 0.345038
0.59375 0.0078125 -0.00139857 -1.36762e-06 -2.83529e-06 0.344406
0.597656 0.0078125 -0.00139577 -1.51761e-06 -2.82968e-06 0.343705
0.601563 0.0078125 -0.00139267 -1.66834e-06 -2.82349e-06 0.342933
0.605469 0.0078125 -0.00138929 -1.81977e-06 -2.8167e-06 0.34209
0.609375 0.0078125 -0.00138561 -1.97186e-06 -2.80932e-06 0.341176
0.613281 0.0078125 -0.00138165 -2.12457e-06 -2.80134e-06 0.340191
0.617188 0.0078125 -0.00137739 -2.27784e-06 -2.79277e-06 0.339134
0.621094 0.0078125 -0.00137284 -2.43163e-06 -2.7836e-06 0.338005
0.625 0.0078125 -0.00136799 -2.5859e-06 -2.77382e-06 0.336804
0.628906 0.0078125 -0.00136284 -2.74059e-06 -2.76344e-06 0.33553
0.632813 0.0078125 -0.0013574 -2.89565e-06 -2.75246e-06 0.334185
0.636719 0.0078125 -0.00135167 -3.05103e-06 -2.74087e-06 0.332766
0.640625 0.0078125 -0.00134563 -3.20668e-06 -2.72867e-06 0.331275
0.644531 0.0078125 -0.0013393 -3.36254e-06 -2.71586e-06 0.329711
0.648438 0.0078125 -0.00133267 -3.51856e-06 -2.70245e-06 0.328073
0.652344 0.0078125 -0.00132574 -3.67468e-06 -2.68842e-06 0.326363
0.65625 0.0078125 -0.00131851 -3.83084e-06 -2.67379e-06 0.32458
0.660156 0.0078125 -0.00131098 -3.987e-06 -2.65854e-06 0.322724
0.664063 0.0078125 -0.00130315 -4.14308e-06 -2.64268e-06 0.320795
0.667969 0.0078125 -0.00129502 -4.29903e-06 -2.62622e-06 0.318792
0.671875 0.0078125 -0.0012866 -4.4548e-06 -2.60914e-06 0.316717
0.675781 0.0078125 -0.00127788 -4.61031e-06 -2.59146e-06 0.314569
0.679688 0.0078125 -0.00126886 -4.76551e-06 -2.57317e-06 0.312349
0.683594 0.0078125 -0.00125954 -4.92034e-06 -2.55427e-06 0.310056
0.6875 0.0078125 -0.00124993 -5.07474e-06 -2.53477e-06 0.307691
0.691406 0.0078125 -0.00124002 -5.22863e-06 -2.51466e-06 0.305253
0.695313 0.0078125 -0.00122982 -5.38197e-06 -2.49396e-06 0.302744
0.699219 0.0078125 -0.00121933 -5.53468e-06 -2.47266e-06 0.300163
0.703125 0.0078125 -0.00120854 -5.6867e-06 -2.45076e-06 0.297511
0.707031 0.0078125 -0.00119746 -5.83798e-06 -2.42827e-06 0.294788
0.710938 0.0078125 -0.0011861 -5.98844e-06 -2.40519e-06 0.291994
0.714844 0.0078125 -0.00117445 -6.13802e-06 -2.38152e-06 0.28913
0.71875 0.0078125 -0.00116251 -6.28666e-06 -2.35727e-06 0.286197
0.722656 0.0078125 -0.00115029 -6.4343e-06 -2.33244e-06 0.283194
0.726563 0.0078125 -0.00113778 -6.58088e-06 -2.30704e-06 0.280122
0.730469 0.0078125 -0.001125 -6.72632e-06 -2.28107e-06 0.276982
0.734375 0.0078125 -0.00111194 -6.87058e-06 -2.25453e-06 0.273774
0.738281 0.0078125 -0.00109861 -7.01358e-06 -2.22742e-06 0.270499
0.742188 0.0078125 -0.001085 -7.15527e-06 -2.19976e-06 0.267158
0.746094 0.0078125 -0.00107112 -7.29559e-06 -2.17155e-06 0.26375
0.75 0.0078125 -0.00105697 -7.43448e-06 -2.1428e-06 0.260277
0.753906 0.0078125 -0.00104256 -7.57189e-06 -2.1135e-06 0.256739
0.757813 0.0078125 -0.00102789 -7.70774e-06 -2.08367e-06 0.253137
0.761719 0.0078125 -0.00101296 -7.842e-06 -2.05331e-06 0.249472
0.765625 0.0078125 -0.000997773 -7.9746e-06 -2.02243e-06 0.245744
0.769531 0.0078125 -0.000982334 -8.10549e-06 -1.99104e-06 0.241955
0.773438 0.0078125 -0.000966646 -8.23462e-06 -1.95914e-06 0.238104
0.777344 0.0078125 -0.000950711 -8.36193e-06 -1.92673e-06 0.234193
0.78125 0.0078125 -0.000934535 -8.48738e-06 -1.89383e-06 0.230224
0.785156 0.0078125 -0.000918119 -8.61091e-06 -1.86045e-06 0.226195
0.789063 0.0078125 -0.000901469 -8.73248e-06 -1.82658e-06 0.22211
0.792969 0.0078125 -0.000884587 -8.85204e-06 -1.79224e-06 0.217967
0.796875 0.0078125 -0.000867478 -8.96953e-06 -1.75744e-06 0.213769
0.800781 0.0078125 -0.000850146 -9.08492e-06 -1.72219e-06 0.209516
0.804688 0.0078125 -0.000832594 -9.19814e-06 -1.68649e-06 0.20521
0.808594 0.0078125 -0.000814828 -9.30916e-06 -1.65035e-06 0.200851
0.8125 0.0078125 -0.00079685 -9.4179e-06 -1.61378e-06 0.196441
0.816406 0.0078125 -0.000778667 -9.52432e-06 -1.57678e-06 0.19198
0.820313 0.0078125 -0.000760281 -9.62834e-06 -1.53938e-06 0.187469
0.824219 0.0078125 -0.000741698 -9.7299e-06 -1.50158e-06 0.182911
0.828125 0.0078125 -0.000722923 -9.82891e-06 -1.46338e-06 0.178305
0.832031 0.0078125 -0.000703961 -9.92529e-06 -1.4248e-06 0.173654
0.835938 0.0078125 -0.000684817 -1.00189e-05 -1.38585e-06 0.168958
0.839844 0.0078125 -0.000665496 -1.01097e-05 -1.34654e-06 0.164219
0.84375 0.0078125 -0.000646005 -1.01974e-05 -1.30688e-06 0.159439
0.847656 0.0078125 -0.000626349 -1.02819e-05 -1.26688e-06 0.154618
0.851563 0.0078125 -0.000606535 -1.0363e-05 -1.22655e-06 0.14976