Title=" Lid Driven Flow"
VARIABLES="X","Y","U","V","psi","xi"
ZONE T= "BOX", I= 201, J=201, F=POINT
0 0 0 0 0.00276312 0
0.005 0 0 0 0 0
0.01 0 0 0 0 0
0.015 0 0 0 0 161.891
0.02 0 0 0 0 176.124
0.025 0 0 0 0 155.606
0.03 0 0 0 0 133.219
0.035 0 0 0 0 115.702
0.04 0 0 0 0 102.851
0.045 0 0 0 0 93.3205
0.05 0 0 0 0 85.9994
0.055 0 0 0 0 80.155
0.06 0 0 0 0 75.3285
0.065 0 0 0 0 71.2313
0.07 0 0 0 0 67.6758
0.075 0 0 0 0 64.5357
0.08 0 0 0 0 61.7229
0.085 0 0 0 0 59.1741
0.09 0 0 0 0 56.8428
0.095 0 0 0 0 54.694
0.1 0 0 0 0 52.701
0.105 0 0 0 0 50.843
0.11 0 0 0 0 49.1034
0.115 0 0 0 0 47.4689
0.12 0 0 0 0 45.9289
0.125 0 0 0 0 44.4743
0.13 0 0 0 0 43.0976
0.135 0 0 0 0 41.7924
0.14 0 0 0 0 40.5531
0.145 0 0 0 0 39.3748
0.15 0 0 0 0 38.2532
0.155 0 0 0 0 37.1844
0.16 0 0 0 0 36.165
0.165 0 0 0 0 35.1915
0.17 0 0 0 0 34.2612
0.175 0 0 0 0 33.3713
0.18 0 0 0 0 32.5191
0.185 0 0 0 0 31.7024
0.19 0 0 0 0 30.9189
0.195 0 0 0 0 30.1664
0.2 0 0 0 0 29.443
0.205 0 0 0 0 28.7468
0.21 0 0 0 0 28.076
0.215 0 0 0 0 27.429
0.22 0 0 0 0 26.8042
0.225 0 0 0 0 26.2
0.23 0 0 0 0 25.6151
0.235 0 0 0 0 25.0482
0.24 0 0 0 0 24.4979
0.245 0 0 0 0 23.9631
0.25 0 0 0 0 23.4426
0.255 0 0 0 0 22.9354
0.26 0 0 0 0 22.4406
0.265 0 0 0 0 21.9571
0.27 0 0 0 0 21.484
0.275 0 0 0 0 21.0207
0.28 0 0 0 0 20.5662
0.285 0 0 0 0 20.1199
0.29 0 0 0 0 19.6812
0.295 0 0 0 0 19.2493
0.3 0 0 0 0 18.8238
0.305 0 0 0 0 18.404
0.31 0 0 0 0 17.9896
0.315 0 0 0 0 17.5801
0.32 0 0 0 0 17.175
0.325 0 0 0 0 16.7741
0.33 0 0 0 0 16.377
0.335 0 0 0 0 15.9834
0.34 0 0 0 0 15.593
0.345 0 0 0 0 15.2058
0.35 0 0 0 0 14.8214
0.355 0 0 0 0 14.4397
0.36 0 0 0 0 14.0606
0.365 0 0 0 0 13.684
0.37 0 0 0 0 13.3099
0.375 0 0 0 0 12.9382
0.38 0 0 0 0 12.5689
0.385 0 0 0 0 12.202
0.39 0 0 0 0 11.8376
0.395 0 0 0 0 11.4757
0.4 0 0 0 0 11.1164
0.405 0 0 0 0 10.7599
0.41 0 0 0 0 10.4061
0.415 0 0 0 0 10.0554
0.42 0 0 0 0 9.70774
0.425 0 0 0 0 9.36341
0.43 0 0 0 0 9.02255
0.435 0 0 0 0 8.68535
0.44 0 0 0 0 8.35202
0.445 0 0 0 0 8.02276
0.45 0 0 0 0 7.69779
0.455 0 0 0 0 7.37732
0.46 0 0 0 0 7.06158
0.465 0 0 0 0 6.75078
0.47 0 0 0 0 6.44516
0.475 0 0 0 0 6.14491
0.48 0 0 0 0 5.85027
0.485 0 0 0 0 5.56144
0.49 0 0 0 0 5.27861
0.495 0 0 0 0 5.002
0.5 0 0 0 0 4.73177
0.505 0 0 0 0 4.4681
0.51 0 0 0 0 4.21115
0.515 0 0 0 0 3.96106
0.52 0 0 0 0 3.71798
0.525 0 0 0 0 3.482
0.53 0 0 0 0 3.25324
0.535 0 0 0 0 3.03178
0.54 0 0 0 0 2.81768
0.545 0 0 0 0 2.61099
0.55 0 0 0 0 2.41174
0.555 0 0 0 0 2.21995
0.56 0 0 0 0 2.0356
0.565 0 0 0 0 1.85869
0.57 0 0 0 0 1.68916
0.575 0 0 0 0 1.52697
0.58 0 0 0 0 1.37203
0.585 0 0 0 0 1.22427
0.59 0 0 0 0 1.08358
0.595 0 0 0 0 0.94985
0.6 0 0 0 0 0.822942
0.605 0 0 0 0 0.702719
0.61 0 0 0 0 0.589032
0.615 0 0 0 0 0.481717
0.62 0 0 0 0 0.380606
0.625 0 0 0 0 0.285521
0.63 0 0 0 0 0.196278
0.635 0 0 0 0 0.112687
0.64 0 0 0 0 0.0345545
0.645 0 0 0 0 -0.038317
0.65 0 0 0 0 -0.106128
0.655 0 0 0 0 -0.16908
0.66 0 0 0 0 -0.227376
0.665 0 0 0 0 -0.28122
0.67 0 0 0 0 -0.330816
0.675 0 0 0 0 -0.376364
0.68 0 0 0 0 -0.418068
0.685 0 0 0 0 -0.456125
0.69 0 0 0 0 -0.490735
0.695 0 0 0 0 -0.522093
0.7 0 0 0 0 -0.550391
0.705 0 0 0 0 -0.575819
0.71 0 0 0 0 -0.598563
0.715 0 0 0 0 -0.618806
0.72 0 0 0 0 -0.636725
0.725 0 0 0 0 -0.652494
0.73 0 0 0 0 -0.666279
0.735 0 0 0 0 -0.678241
0.74 0 0 0 0 -0.688533
0.745 0 0 0 0 -0.697299
0.75 0 0 0 0 -0.704675
0.755 0 0 0 0 -0.710786
0.76 0 0 0 0 -0.715745
0.765 0 0 0 0 -0.719655
0.77 0 0 0 0 -0.722604
0.775 0 0 0 0 -0.724667
0.78 0 0 0 0 -0.725906
0.785 0 0 0 0 -0.726369
0.79 0 0 0 0 -0.726087
0.795 0 0 0 0 -0.725079
0.8 0 0 0 0 -0.723349
0.805 0 0 0 0 -0.720889
0.81 0 0 0 0 -0.717676
0.815 0 0 0 0 -0.713678
0.82 0 0 0 0 -0.70885
0.825 0 0 0 0 -0.70314
0.83 0 0 0 0 -0.69649
0.835 0 0 0 0 -0.688833
0.84 0 0 0 0 -0.680102
0.845 0 0 0 0 -0.670227
0.85 0 0 0 0 -0.659139
0.855 0 0 0 0 -0.646774
0.86 0 0 0 0 -0.633069
0.865 0 0 0 0 -0.617973
0.87 0 0 0 0 -0.601443
0.875 0 0 0 0 -0.583447
0.88 0 0 0 0 -0.56397
0.885 0 0 0 0 -0.543009
0.89 0 0 0 0 -0.520582
0.895 0 0 0 0 -0.496727
0.9 0 0 0 0 -0.471501
0.905 0 0 0 0 -0.444987
0.91 0 0 0 0 -0.417288
0.915 0 0 0 0 -0.388535
0.92 0 0 0 0 -0.358885
0.925 0 0 0 0 -0.32852
0.93 0 0 0 0 -0.29765
0.935 0 0 0 0 -0.266513
0.94 0 0 0 0 -0.235374
0.945 0 0 0 0 -0.204529
0.95 0 0 0 0 -0.174299
0.955 0 0 0 0 -0.145037
0.96 0 0 0 0 -0.117125
0.965 0 0 0 0 -0.0909733
0.97 0 0 0 0 -0.0670222
0.975 0 0 0 0 -0.0457387
0.98 0 0 0 0 -0.0276104
0.985 0 0 0 0 -0.0131285
0.99 0 0 0 0 -0.00274881
0.995 0 0 0 0 0.00320299
1 0 0 0 0 0.00475019
0 0.005 0 0 0 0
0.005 0.005 0 0 0 0
0.01 0.005 0 0 0 73.7277
0.015 0.005 0 0 0 62.0564
0.02 0.005 0 0 0 45.6924
0.025 0.005 0 0 0 33.9163
0.03 0.005 0 0 0 26.0206
0.035 0.005 0 0 0 20.604
0.04 0.005 0 0 0 16.7223
0.045 0.005 0 0 0 13.8208
0.05 0.005 0 0 0 11.5773
0.055 0.005 0 0 0 9.79804
0.06 0.005 0 0 0 8.36104
0.065 0.005 0 0 0 7.18532
0.07 0.005 0 0 0 6.2145
0.075 0.005 0 0 0 5.40765
0.08 0.005 0 0 0 4.73402
0.085 0.005 0 0 0 4.16986
0.09 0.005 0 0 0 3.69641
0.095 0.005 0 0 0 3.29866
0.1 0.005 0 0 0 2.96439
0.105 0.005 0 0 0 2.68361
0.11 0.005 0 0 0 2.44806
0.115 0.005 0 0 0 2.25091
0.12 0.005 0 0 0 2.08647
0.125 0.005 0 0 0 1.94998
0.13 0.005 0 0 0 1.83746
0.135 0.005 0 0 0 1.74557
0.14 0.005 0 0 0 1.67151
0.145 0.005 0 0 0 1.61292
0.15 0.005 0 0 0 1.56782
0.155 0.005 0 0 0 1.53453
0.16 0.005 0 0 0 1.51163
0.165 0.005 0 0 0 1.49793
0.17 0.005 0 0 0 1.49243
0.175 0.005 0 0 0 1.49426
0.18 0.005 0 0 0 1.5027
0.185 0.005 0 0 0 1.51713
0.19 0.005 0 0 0 1.53702
0.195 0.005 0 0 0 1.56193
0.2 0.005 0 0 0 1.59147
0.205 0.005 0 0 0 1.6253
0.21 0.005 0 0 0 1.66313
0.215 0.005 0 0 0 1.70472
0.22 0.005 0 0 0 1.74984
0.225 0.005 0 0 0 1.79829
0.23 0.005 0 0 0 1.8499
0.235 0.005 0 0 0 1.9045
0.24 0.005 0 0 0 1.96194
0.245 0.005 0 0 0 2.02209
0.25 0.005 0 0 0 2.08481
0.255 0.005 0 0 0 2.14999
0.26 0.005 0 0 0 2.21749
0.265 0.005 0 0 0 2.2872
0.27 0.005 0 0 0 2.35899
0.275 0.005 0 0 0 2.43276
0.28 0.005 0 0 0 2.50838
0.285 0.005 0 0 0 2.58573
0.29 0.005 0 0 0 2.6647
0.295 0.005 0 0 0 2.74515
0.3 0.005 0 0 0 2.82695
0.305 0.005 0 0 0 2.90999
0.31 0.005 0 0 0 2.99411
0.315 0.005 0 0 0 3.0792
0.32 0.005 0 0 0 3.16509
0.325 0.005 0 0 0 3.25165
0.33 0.005 0 0 0 3.33874
0.335 0.005 0 0 0 3.42619
0.34 0.005 0 0 0 3.51385
0.345 0.005 0 0 0 3.60156
0.35 0.005 0 0 0 3.68915
0.355 0.005 0 0 0 3.77647
0.36 0.005 0 0 0 3.86335
0.365 0.005 0 0 0 3.94961
0.37 0.005 0 0 0 4.03507
0.375 0.005 0 0 0 4.11957
0.38 0.005 0 0 0 4.20292
0.385 0.005 0 0 0 4.28496
0.39 0.005 0 0 0 4.36549
0.395 0.005 0 0 0 4.44435
0.4 0.005 0 0 0 4.52134
0.405 0.005 0 0 0 4.5963
0.41 0.005 0 0 0 4.66905
0.415 0.005 0 0 0 4.73941
0.42 0.005 0 0 0 4.80721
0.425 0.005 0 0 0 4.87228
0.43 0.005 0 0 0 4.93444
0.435 0.005 0 0 0 4.99354
0.44 0.005 0 0 0 5.04942
0.445 0.005 0 0 0 5.10192
0.45 0.005 0 0 0 5.15088
0.455 0.005 0 0 0 5.19617
0.46 0.005 0 0 0 5.23765
0.465 0.005 0 0 0 5.27518
0.47 0.005 0 0 0 5.30864
0.475 0.005 0 0 0 5.33791
0.48 0.005 0 0 0 5.36289
0.485 0.005 0 0 0 5.38347
0.49 0.005 0 0 0 5.39956
0.495 0.005 0 0 0 5.41109
0.5 0.005 0 0 0 5.41797
0.505 0.005 0 0 0 5.42016
0.51 0.005 0 0 0 5.41759
0.515 0.005 0 0 0 5.41023
0.52 0.005 0 0 0 5.39805
0.525 0.005 0 0 0 5.38103
0.53 0.005 0 0 0 5.35917
0.535 0.005 0 0 0 5.33248
0.54 0.005 0 0 0 5.30097
0.545 0.005 0 0 0 5.26467
0.55 0.005 0 0 0 5.22363
0.555 0.005 0 0 0 5.17791
0.56 0.005 0 0 0 5.12756
0.565 0.005 0 0 0 5.07269
0.57 0.005 0 0 0 5.01336
0.575 0.005 0 0 0 4.9497
0.58 0.005 0 0 0 4.88182
0.585 0.005 0 0 0 4.80984
0.59 0.005 0 0 0 4.73391
0.595 0.005 0 0 0 4.65417
0.6 0.005 0 0 0 4.57078
0.605 0.005 0 0 0 4.48392
0.61 0.005 0 0 0 4.39376
0.615 0.005 0 0 0 4.3005
0.62 0.005 0 0 0 4.20432
0.625 0.005 0 0 0 4.10544
0.63 0.005 0 0 0 4.00406
0.635 0.005 0 0 0 3.9004
0.64 0.005 0 0 0 3.79469
0.645 0.005 0 0 0 3.68714
0.65 0.005 0 0 0 3.57799
0.655 0.005 0 0 0 3.46748
0.66 0.005 0 0 0 3.35583
0.665 0.005 0 0 0 3.24328
0.67 0.005 0 0 0 3.13008
0.675 0.005 0 0 0 3.01644
0.68 0.005 0 0 0 2.90262
0.685 0.005 0 0 0 2.78883
0.69 0.005 0 0 0 2.67531
0.695 0.005 0 0 0 2.56229
0.7 0.005 0 0 0 2.44997
0.705 0.005 0 0 0 2.33857
0.71 0.005 0 0 0 2.2283
0.715 0.005 0 0 0 2.11936
0.72 0.005 0 0 0 2.01194
0.725 0.005 0 0 0 1.90622
0.73 0.005 0 0 0 1.80237
0.735 0.005 0 0 0 1.70057
0.74 0.005 0 0 0 1.60095
0.745 0.005 0 0 0 1.50368
0.75 0.005 0 0 0 1.40887
0.755 0.005 0 0 0 1.31666
0.76 0.005 0 0 0 1.22715
0.765 0.005 0 0 0 1.14044
0.77 0.005 0 0 0 1.05662
0.775 0.005 0 0 0 0.975771
0.78 0.005 0 0 0 0.897954
0.785 0.005 0 0 0 0.823223
0.79 0.005 0 0 0 0.751623
0.795 0.005 0 0 0 0.683185
0.8 0.005 0 0 0 0.617932
0.805 0.005 0 0 0 0.555874
0.81 0.005 0 0 0 0.497014
0.815 0.005 0 0 0 0.441343
0.82 0.005 0 0 0 0.388845
0.825 0.005 0 0 0 0.339495
0.83 0.005 0 0 0 0.293258
0.835 0.005 0 0 0 0.250094
0.84 0.005 0 0 0 0.209955
0.845 0.005 0 0 0 0.172785
0.85 0.005 0 0 0 0.138525
0.855 0.005 0 0 0 0.107109
0.86 0.005 0 0 0 0.0784657
0.865 0.005 0 0 0 0.05252
0.87 0.005 0 0 0 0.0291931
0.875 0.005 0 0 0 0.00840276
0.88 0.005 0 0 0 -0.00993624
0.885 0.005 0 0 0 -0.0259116
0.89 0.005 0 0 0 -0.0396132
0.895 0.005 0 0 0 -0.051133
0.9 0.005 0 0 0 -0.0605645
0.905 0.005 0 0 0 -0.0680029
0.91 0.005 0 0 0 -0.0735452
0.915 0.005 0 0 0 -0.0772903
0.92 0.005 0 0 0 -0.0793393
0.925 0.005 0 0 0 -0.0797961
0.93 0.005 0 0 0 -0.0787683
0.935 0.005 0 0 0 -0.0763685
0.94 0.005 0 0 0 -0.0727154
0.945 0.005 0 0 0 -0.0679365
0.95 0.005 0 0 0 -0.0621704
0.955 0.005 0 0 0 -0.0555706
0.96 0.005 0 0 0 -0.0483101
0.965 0.005 0 0 0 -0.0405873
0.97 0.005 0 0 0 -0.0326342
0.975 0.005 0 0 0 -0.024726
0.98 0.005 0 0 0 -0.0171937
0.985 0.005 0 0 0 -0.0104365
0.99 0.005 0 0 0 -0.00492748
0.995 0.005 0 0 0 -0.00118568
1 0.005 0 0 0 0.000375345
0 0.01 0 0 0.000375345 0
0.005 0.01 0 0 0 -326.272
0.01 0.01 -0.180029 0.0775704 -0.000921596 -44.4155
0.015 0.01 -0.184796 -0.0350441 -0.000775704 9.51596
0.02 0.01 -0.156263 -0.035175 -0.000571156 19.1068
0.025 0.01 -0.127404 -0.0245898 -0.000423954 18.9854
0.03 0.01 -0.104019 -0.0166404 -0.000325257 16.8264
0.035 0.01 -0.0858556 -0.0116229 -0.00025755 14.5057
0.04 0.01 -0.0717104 -0.008479 -0.000209028 12.452
0.045 0.01 -0.0605265 -0.00643122 -0.00017276 10.7187
0.05 0.01 -0.0515369 -0.00502847 -0.000144716 9.26961
0.055 0.01 -0.0442071 -0.0040203 -0.000122475 8.05591
0.06 0.01 -0.0381629 -0.00326589 -0.000104513 7.03474
0.065 0.01 -0.0331364 -0.00268318 -8.98164e-05 6.17168
0.07 0.01 -0.0289302 -0.00222208 -7.76811e-05 5.43958
0.075 0.01 -0.025395 -0.00185059 -6.75955e-05 4.81696
0.08 0.01 -0.0224146 -0.00154723 -5.91752e-05 4.28657
0.085 0.01 -0.0198971 -0.001297 -5.21231e-05 3.83434
0.09 0.01 -0.0177682 -0.00108899 -4.62051e-05 3.44871
0.095 0.01 -0.0159674 -0.000915022 -4.12332e-05 3.12003
0.1 0.01 -0.0144446 -0.000768808 -3.70548e-05 2.84021
0.105 0.01 -0.0131585 -0.000645403 -3.3545e-05 2.60241
0.11 0.01 -0.0120743 -0.000540858 -3.06007e-05 2.40086
0.115 0.01 -0.0111629 -0.000451979 -2.81363e-05 2.23062
0.12 0.01 -0.0104 -0.00037616 -2.60808e-05 2.08751
0.125 0.01 -0.00976483 -0.000311259 -2.43747e-05 1.96794
0.13 0.01 -0.00924002 -0.000255504 -2.29681e-05 1.86887
0.135 0.01 -0.00881084 -0.000207426 -2.18195e-05 1.78768
0.14 0.01 -0.0084648 -0.0001658 -2.08938e-05 1.72215
0.145 0.01 -0.00819133 -0.000129606 -2.01615e-05 1.67035
0.15 0.01 -0.00798145 -9.79874e-05 -1.95977e-05 1.63067
0.155 0.01 -0.00782754 -7.023e-05 -1.91815e-05 1.60169
0.16 0.01 -0.00772312 -4.57328e-05 -1.88953e-05 1.58222
0.165 0.01 -0.00766268 -2.39922e-05 -1.87241e-05 1.57124
0.17 0.01 -0.00764152 -4.585e-06 -1.86553e-05 1.56785
0.175 0.01 -0.00765564 1.28438e-05 -1.86782e-05 1.5713
0.18 0.01 -0.00770162 2.85923e-05 -1.87837e-05 1.58095
0.185 0.01 -0.00777652 4.29105e-05 -1.89641e-05 1.59621
0.19 0.01 -0.00787783 5.60078e-05 -1.92127e-05 1.61662
0.195 0.01 -0.0080034 6.80595e-05 -1.95241e-05 1.64174
0.2 0.01 -0.00815133 7.92116e-05 -1.98933e-05 1.67122
0.205 0.01 -0.00832003 8.95859e-05 -2.03162e-05 1.70472
0.21 0.01 -0.00850805 9.92833e-05 -2.07891e-05 1.74197
0.215 0.01 -0.00871415 0.000108387 -2.1309e-05 1.78271
0.22 0.01 -0.00893723 0.000116966 -2.18729e-05 1.82672
0.225 0.01 -0.00917629 0.000125075 -2.24786e-05 1.87381
0.23 0.01 -0.00943043 0.000132761 -2.31237e-05 1.92377
0.235 0.01 -0.00969883 0.000140058 -2.38062e-05 1.97646
0.24 0.01 -0.00998073 0.000146996 -2.45242e-05 2.03171
0.245 0.01 -0.0102754 0.000153596 -2.52761e-05 2.08937
0.25 0.01 -0.0105822 0.000159875 -2.60601e-05 2.1493
0.255 0.01 -0.0109005 0.000165844 -2.68748e-05 2.21137
0.26 0.01 -0.0112296 0.000171512 -2.77186e-05 2.27546
0.265 0.01 -0.0115689 0.000176883 -2.85899e-05 2.34142
0.27 0.01 -0.0119179 0.000181958 -2.94874e-05 2.40914
0.275 0.01 -0.0122758 0.000186737 -3.04095e-05 2.47849
0.28 0.01 -0.0126421 0.000191218 -3.13548e-05 2.54934
0.285 0.01 -0.0130163 0.000195396 -3.23217e-05 2.62158
0.29 0.01 -0.0133975 0.000199265 -3.33087e-05 2.69506
0.295 0.01 -0.0137853 0.000202818 -3.43144e-05 2.76967
0.3 0.01 -0.014179 0.000206049 -3.53369e-05 2.84528
0.305 0.01 -0.014578 0.000208948 -3.63749e-05 2.92174
0.31 0.01 -0.0149814 0.000211508 -3.74264e-05 2.99894
0.315 0.01 -0.0153888 0.000213718 -3.849e-05 3.07672
0.32 0.01 -0.0157993 0.000215569 -3.95637e-05 3.15496
0.325 0.01 -0.0162122 0.000217053 -4.06457e-05 3.2335
0.33 0.01 -0.0166269 0.00021816 -4.17342e-05 3.31222
0.335 0.01 -0.0170426 0.000218881 -4.28274e-05 3.39095
0.34 0.01 -0.0174584 0.000219207 -4.39231e-05 3.46955
0.345 0.01 -0.0178737 0.00021913 -4.50195e-05 3.54788
0.35 0.01 -0.0182877 0.000218642 -4.61145e-05 3.62577
0.355 0.01 -0.0186995 0.000217736 -4.7206e-05 3.70308
0.36 0.01 -0.0191083 0.000216405 -4.82919e-05 3.77966
0.365 0.01 -0.0195134 0.000214643 -4.93702e-05 3.85534
0.37 0.01 -0.0199138 0.000212445 -5.04385e-05 3.92997
0.375 0.01 -0.0203089 0.000209806 -5.14947e-05 4.0034
0.38 0.01 -0.0206976 0.000206725 -5.25367e-05 4.07547
0.385 0.01 -0.0210793 0.000203198 -5.35621e-05 4.14601
0.39 0.01 -0.0214531 0.000199224 -5.45688e-05 4.21489
0.395 0.01 -0.021818 0.000194802 -5.55545e-05 4.28194
0.4 0.01 -0.0221734 0.000189935 -5.65169e-05 4.34701
0.405 0.01 -0.0225184 0.000184624 -5.7454e-05 4.40995
0.41 0.01 -0.0228522 0.000178871 -5.83633e-05 4.47061
0.415 0.01 -0.0231739 0.000172683 -5.92428e-05 4.52884
0.42 0.01 -0.0234828 0.000166064 -6.00903e-05 4.58451
0.425 0.01 -0.023778 0.000159022 -6.09037e-05 4.63748
0.43 0.01 -0.024059 0.000151565 -6.16807e-05 4.6876
0.435 0.01 -0.0243248 0.000143702 -6.24195e-05 4.73475
0.44 0.01 -0.0245748 0.000135445 -6.3118e-05 4.7788
0.445 0.01 -0.0248083 0.000126806 -6.37742e-05 4.81964
0.45 0.01 -0.0250247 0.000117798 -6.43862e-05 4.85714
0.455 0.01 -0.0252232 0.000108435 -6.49524e-05 4.89119
0.46 0.01 -0.0254033 9.87356e-05 -6.54708e-05 4.92169
0.465 0.01 -0.0255644 8.87152e-05 -6.59399e-05 4.94855
0.47 0.01 -0.025706 7.8393e-05 -6.63582e-05 4.97167
0.475 0.01 -0.0258276 6.77887e-05 -6.67241e-05 4.99097
0.48 0.01 -0.0259287 5.69233e-05 -6.70364e-05 5.00638
0.485 0.01 -0.0260089 4.5819e-05 -6.72936e-05 5.01782
0.49 0.01 -0.0260678 3.44989e-05 -6.74948e-05 5.02525
0.495 0.01 -0.0261051 2.29874e-05 -6.76389e-05 5.0286
0.5 0.01 -0.0261204 1.13096e-05 -6.7725e-05 5.02784
0.505 0.01 -0.0261137 -5.08145e-07 -6.77523e-05 5.02293
0.51 0.01 -0.0260846 -1.24389e-05 -6.77202e-05 5.01384
0.515 0.01 -0.0260331 -2.44548e-05 -6.76282e-05 5.00058
0.52 0.01 -0.025959 -3.65274e-05 -6.74759e-05 4.98311
0.525 0.01 -0.0258623 -4.86273e-05 -6.72632e-05 4.96146
0.53 0.01 -0.0257431 -6.07249e-05 -6.699e-05 4.93564
0.535 0.01 -0.0256014 -7.27901e-05 -6.66563e-05 4.90566
0.54 0.01 -0.0254373 -8.47924e-05 -6.62624e-05 4.87157
0.545 0.01 -0.0252511 -9.6701e-05 -6.58087e-05 4.8334
0.55 0.01 -0.025043 -0.000108485 -6.52957e-05 4.7912
0.555 0.01 -0.0248132 -0.000120114 -6.47241e-05 4.74505
0.56 0.01 -0.0245621 -0.000131556 -6.40949e-05 4.69501
0.565 0.01 -0.0242902 -0.000142782 -6.34089e-05 4.64116
0.57 0.01 -0.0239979 -0.000153761 -6.26674e-05 4.5836
0.575 0.01 -0.0236856 -0.000164464 -6.18716e-05 4.52242
0.58 0.01 -0.023354 -0.000174861 -6.10231e-05 4.45774
0.585 0.01 -0.0230037 -0.000184924 -6.01233e-05 4.38966
0.59 0.01 -0.0226354 -0.000194625 -5.91741e-05 4.31832
0.595 0.01 -0.0222497 -0.000203939 -5.81774e-05 4.24386
0.6 0.01 -0.0218473 -0.00021284 -5.71351e-05 4.16641
0.605 0.01 -0.0214292 -0.000221304 -5.60493e-05 4.08612
0.61 0.01 -0.0209962 -0.000229308 -5.49223e-05 4.00314
0.615 0.01 -0.020549 -0.00023683 -5.37565e-05 3.91765
0.62 0.01 -0.0200887 -0.000243853 -5.25543e-05 3.8298
0.625 0.01 -0.0196162 -0.000250357 -5.13183e-05 3.73977
0.63 0.01 -0.0191324 -0.000256326 -5.00511e-05 3.64775
0.635 0.01 -0.0186384 -0.000261747 -4.87553e-05 3.5539
0.64 0.01 -0.0181351 -0.000266607 -4.74339e-05 3.45842
0.645 0.01 -0.0176236 -0.000270896 -4.60895e-05 3.3615
0.65 0.01 -0.017105 -0.000274607 -4.47252e-05 3.26332
0.655 0.01 -0.0165804 -0.000277732 -4.33437e-05 3.16409
0.66 0.01 -0.0160507 -0.000280269 -4.19481e-05 3.06399
0.665 0.01 -0.0155171 -0.000282216 -4.05413e-05 2.96322
0.67 0.01 -0.0149807 -0.000283574 -3.91262e-05 2.86198
0.675 0.01 -0.0144425 -0.000284345 -3.77058e-05 2.76046
0.68 0.01 -0.0139036 -0.000284536 -3.6283e-05 2.65884
0.685 0.01 -0.0133651 -0.000284152 -3.48606e-05 2.55733
0.69 0.01 -0.0128279 -0.000283204 -3.34416e-05 2.4561
0.695 0.01 -0.0122932 -0.000281704 -3.20288e-05 2.35535
0.7 0.01 -0.0117619 -0.000279664 -3.06248e-05 2.25524
0.705 0.01 -0.011235 -0.0002771 -2.92323e-05 2.15597
0.71 0.01 -0.0107133 -0.000274029 -2.78539e-05 2.05769
0.715 0.01 -0.010198 -0.00027047 -2.64922e-05 1.96057
0.72 0.01 -0.00968968 -0.000266444 -2.51494e-05 1.86478
0.725 0.01 -0.00918934 -0.000261972 -2.38279e-05 1.77045
0.73 0.01 -0.00869774 -0.000257078 -2.25298e-05 1.67774
0.735 0.01 -0.00821564 -0.000251787 -2.12572e-05 1.58678
0.74 0.01 -0.00774374 -0.000246123 -2.0012e-05 1.4977
0.745 0.01 -0.0072827 -0.000240113 -1.87961e-05 1.41063
0.75 0.01 -0.00683313 -0.000233784 -1.7611e-05 1.32567
0.755 0.01 -0.00639561 -0.000227165 -1.64583e-05 1.24293
0.76 0.01 -0.00597065 -0.000220282 -1.53394e-05 1.16251
0.765 0.01 -0.00555871 -0.000213165 -1.42556e-05 1.08449
0.77 0.01 -0.00516021 -0.000205842 -1.32078e-05 1.00894
0.775 0.01 -0.0047755 -0.000198341 -1.21972e-05 0.935945
0.78 0.01 -0.00440491 -0.00019069 -1.12245e-05 0.865552
0.785 0.01 -0.00404868 -0.000182918 -1.02903e-05 0.797815
0.79 0.01 -0.00370704 -0.000175051 -9.39532e-06 0.732773
0.795 0.01 -0.00338014 -0.000167117 -8.53984e-06 0.670461
0.8 0.01 -0.00306809 -0.000159141 -7.72416e-06 0.610901
0.805 0.01 -0.00277096 -0.000151149 -6.94844e-06 0.554109
0.81 0.01 -0.00248877 -0.000143165 -6.21268e-06 0.500091
0.815 0.01 -0.00222151 -0.000135211 -5.51679e-06 0.448848
0.82 0.01 -0.0019691 -0.000127311 -4.86057e-06 0.40037
0.825 0.01 -0.00173145 -0.000119484 -4.24368e-06 0.354643
0.83 0.01 -0.00150841 -0.00011175 -3.66572e-06 0.311642
0.835 0.01 -0.0012998 -0.000104128 -3.12616e-06 0.271341
0.84 0.01 -0.00110542 -9.66346e-05 -2.62442e-06 0.233702
0.845 0.01 -0.000925034 -8.92849e-05 -2.1598e-06 0.198684
0.85 0.01 -0.000758362 -8.20932e-05 -1.73155e-06 0.166243
0.855 0.01 -0.000605116 -7.50725e-05 -1.33884e-06 0.136325
0.86 0.01 -0.000464976 -6.8234e-05 -9.80796e-07 0.108875
0.865 0.01 -0.000337606 -6.15882e-05 -6.56473e-07 0.0838333
0.87 0.01 -0.000222646 -5.51439e-05 -3.64886e-07 0.061135
0.875 0.01 -0.000119721 -4.89089e-05 -1.05006e-07 0.0407129
0.88 0.01 -2.84412e-05 -4.28901e-05 1.24231e-07 0.0224961
0.885 0.01 5.1597e-05 -3.70934e-05 3.23923e-07 0.00641125
0.89 0.01 0.00012081 -3.15239e-05 4.95194e-07 -0.00761811
0.895 0.01 0.000179623 -2.61862e-05 6.3919e-07 -0.0196707
0.9 0.01 0.000228476 -2.10846e-05 7.57083e-07 -0.0298279
0.905 0.01 0.000267814 -1.62232e-05 8.50062e-07 -0.0381731
0.91 0.01 0.000298095 -1.16067e-05 9.19341e-07 -0.0447927
0.915 0.01 0.000319788 -7.24009e-06 9.66153e-07 -0.0497754
0.92 0.01 0.000333375 -3.12983e-06 9.91764e-07 -0.0532133
0.925 0.01 0.000339353 7.15974e-07 9.97472e-07 -0.0552019
0.93 0.01 0.000338241 4.28665e-06 9.84624e-07 -0.0558412
0.935 0.01 0.000330581 7.56814e-06 9.54623e-07 -0.0552366
0.94 0.01 0.000316947 1.05418e-05 9.08958e-07 -0.0534999
0.945 0.01 0.000297955 1.31828e-05 8.4922e-07 -0.0507515
0.95 0.01 0.000274273 1.54587e-05 7.77142e-07 -0.0471216
0.955 0.01 0.000246637 1.73266e-05 6.94643e-07 -0.0427533
0.96 0.01 0.000215866 1.87301e-05 6.03884e-07 -0.037805
0.965 0.01 0.000182891 1.95957e-05 5.07348e-07 -0.0324536
0.97 0.01 0.000148774 1.98273e-05 4.07932e-07 -0.0268979
0.975 0.01 0.000114745 1.93011e-05 3.09078e-07 -0.0213599
0.98 0.01 8.22275e-05 1.78623e-05 2.14923e-07 -0.0160848
0.985 0.01 5.28567e-05 1.5333e-05 1.30457e-07 -0.0113304
0.99 0.01 2.8452e-05 1.15636e-05 6.15938e-08 -0.00733698
0.995 0.01 1.08606e-05 6.62856e-06 1.48209e-08 -0.004249
1 0.01 1.47845e-06 1.48209e-06 -4.69198e-09 -0.00193495
0 0.015 0 0 -0.00118276 0
0.005 0.015 0 0 0 -255.976
0.01 0.015 -0.152818 0.184796 -0.00180029 -79.2736
0.015 0.015 -0.206139 -0.023766 -0.00184796 -16.6452
0.02 0.015 -0.204435 -0.0573924 -0.00156263 2.32502
0.025 0.015 -0.184419 -0.0522449 -0.00127404 7.95024
0.03 0.015 -0.160971 -0.0415484 -0.00104019 9.28298
0.035 0.015 -0.139077 -0.0323082 -0.000858556 9.15729
0.04 0.015 -0.120012 -0.0253291 -0.000717104 8.54318
0.045 0.015 -0.103794 -0.0201735 -0.000605265 7.79499
0.05 0.015 -0.0900861 -0.0163194 -0.000515369 7.04617
0.055 0.015 -0.0784986 -0.013374 -0.00044207 6.3461
0.06 0.015 -0.0686825 -0.0110707 -0.000381628 5.71085
0.065 0.015 -0.0603465 -0.00923262 -0.000331363 5.14301
0.07 0.015 -0.0532526 -0.00774134 -0.000289302 4.63976
0.075 0.015 -0.0472065 -0.00651557 -0.00025395 4.1962
0.08 0.015 -0.0420485 -0.00549789 -0.000224146 3.80689
0.085 0.015 -0.0376467 -0.00464641 -0.000198971 3.46637
0.09 0.015 -0.033891 -0.0039297 -0.000177682 3.16952
0.095 0.015 -0.0306889 -0.00332353 -0.000159673 2.91158
0.1 0.015 -0.0279623 -0.00280883 -0.000144446 2.68826
0.105 0.015 -0.0256451 -0.0023703 -0.000131585 2.49566
0.11 0.015 -0.0236813 -0.00199552 -0.000120743 2.33032
0.115 0.015 -0.022023 -0.00167426 -0.000111629 2.18914
0.12 0.015 -0.0206294 -0.00139808 -0.000104 2.06937
0.125 0.015 -0.0194657 -0.00115995 -9.7648e-05 1.96858
0.13 0.015 -0.0185023 -0.000953963 -9.23999e-05 1.88464
0.135 0.015 -0.0177137 -0.000775192 -8.81081e-05 1.81566
0.14 0.015 -0.0170782 -0.000619479 -8.46477e-05 1.75999
0.145 0.015 -0.0165771 -0.000483319 -8.1913e-05 1.71616
0.15 0.015 -0.0161946 -0.000363759 -7.98142e-05 1.68293
0.155 0.015 -0.0159171 -0.000258299 -7.82752e-05 1.65917
0.16 0.015 -0.0157329 -0.000164832 -7.7231e-05 1.64391
0.165 0.015 -0.0156319 -8.15737e-05 -7.66266e-05 1.6363
0.17 0.015 -0.0156057 -7.01548e-06 -7.6415e-05 1.63561
0.175 0.015 -0.0156467 6.01164e-05 -7.65562e-05 1.64118
0.18 0.015 -0.0157486 0.000120898 -7.7016e-05 1.65244
0.185 0.015 -0.015906 0.000176236 -7.7765e-05 1.6689
0.19 0.015 -0.0161141 0.000226897 -7.87781e-05 1.69012
0.195 0.015 -0.0163688 0.000273521 -8.00338e-05 1.71572
0.2 0.015 -0.0166666 0.000316649 -8.15132e-05 1.74534
0.205 0.015 -0.0170042 0.000356731 -8.32001e-05 1.77869
0.21 0.015 -0.0173789 0.000394143 -8.50803e-05 1.8155
0.215 0.015 -0.0177883 0.000429197 -8.71414e-05 1.85551
0.22 0.015 -0.0182301 0.000462149 -8.93722e-05 1.89852
0.225 0.015 -0.0187025 0.00049321 -9.17627e-05 1.94431
0.23 0.015 -0.0192036 0.000522552 -9.43042e-05 1.9927
0.235 0.015 -0.0197317 0.000550313 -9.69882e-05 2.04353
0.24 0.015 -0.0202853 0.000576601 -9.98072e-05 2.09661
0.245 0.015 -0.020863 0.000601502 -0.000102754 2.15181
0.25 0.015 -0.0214634 0.000625079 -0.000105822 2.20898
0.255 0.015 -0.0220851 0.000647379 -0.000109005 2.26797
0.26 0.015 -0.0227269 0.000668436 -0.000112296 2.32865
0.265 0.015 -0.0233874 0.000688267 -0.000115689 2.39088
0.27 0.015 -0.0240655 0.000706882 -0.000119179 2.45453
0.275 0.015 -0.02476 0.000724281 -0.000122758 2.51947
0.28 0.015 -0.0254695 0.000740458 -0.000126421 2.58557
0.285 0.015 -0.0261928 0.000755398 -0.000130163 2.6527
0.29 0.015 -0.0269286 0.000769084 -0.000133975 2.72072
0.295 0.015 -0.0276758 0.000781494 -0.000137854 2.78952
0.3 0.015 -0.0284329 0.000792603 -0.000141791 2.85895
0.305 0.015 -0.0291987 0.000802383 -0.00014578 2.92889
0.31 0.015 -0.0299717 0.000810804 -0.000149814 2.9992
0.315 0.015 -0.0307508 0.000817838 -0.000153888 3.06974
0.32 0.015 -0.0315344 0.000823453 -0.000157993 3.14038
0.325 0.015 -0.0323212 0.000827619 -0.000162123 3.21099
0.33 0.015 -0.0331096 0.000830306 -0.000166269 3.28142
0.335 0.015 -0.0338984 0.000831485 -0.000170426 3.35153
0.34 0.015 -0.0346859 0.000831128 -0.000174585 3.4212
0.345 0.015 -0.0354706 0.00082921 -0.000178738 3.49027
0.35 0.015 -0.0362512 0.000825707 -0.000182877 3.5586
0.355 0.015 -0.0370259 0.000820598 -0.000186995 3.62607
0.36 0.015 -0.0377934 0.000813864 -0.000191083 3.69252
0.365 0.015 -0.038552 0.000805488 -0.000195134 3.75783
0.37 0.015 -0.0393001 0.00079546 -0.000199139 3.82184
0.375 0.015 -0.0400362 0.000783768 -0.000203089 3.88444
0.38 0.015 -0.0407588 0.000770408 -0.000206977 3.94547
0.385 0.015 -0.0414663 0.000755379 -0.000210794 4.0048
0.39 0.015 -0.0421571 0.000738681 -0.000214531 4.06232
0.395 0.015 -0.0428296 0.000720321 -0.000218181 4.11788
0.4 0.015 -0.0434824 0.000700309 -0.000221735 4.17135
0.405 0.015 -0.044114 0.000678661 -0.000225185 4.22263
0.41 0.015 -0.0447228 0.000655394 -0.000228522 4.27158
0.415 0.015 -0.0453074 0.000630533 -0.000231739 4.31809
0.42 0.015 -0.0458663 0.000604105 -0.000234828 4.36205
0.425 0.015 -0.0463982 0.000576144 -0.000237781 4.40334
0.43 0.015 -0.0469018 0.000546685 -0.00024059 4.44188
0.435 0.015 -0.0473756 0.000515771 -0.000243249 4.47755
0.44 0.015 -0.0478184 0.000483448 -0.000245749 4.51027
0.445 0.015 -0.048229 0.000449767 -0.000248084 4.53994
0.45 0.015 -0.0486063 0.000414783 -0.000250247 4.56649
0.455 0.015 -0.0489491 0.000378557 -0.000252233 4.58983
0.46 0.015 -0.0492564 0.000341151 -0.000254034 4.6099
0.465 0.015 -0.0495272 0.000302635 -0.000255645 4.62663
0.47 0.015 -0.0497606 0.000263081 -0.000257061 4.63997
0.475 0.015 -0.0499558 0.000222567 -0.000258277 4.64986
0.48 0.015 -0.0501119 0.000181172 -0.000259288 4.65626
0.485 0.015 -0.0502284 0.00013898 -0.00026009 4.65914
0.49 0.015 -0.0503046 9.6081e-05 -0.000260679 4.65845
0.495 0.015 -0.05034 5.25649e-05 -0.000261052 4.65419
0.5 0.015 -0.0503341 8.52656e-06 -0.000261205 4.64633
0.505 0.015 -0.0502867 -3.59367e-05 -0.000261138 4.63486
0.51 0.015 -0.0501974 -8.07247e-05 -0.000260847 4.6198
0.515 0.015 -0.0500662 -0.000125735 -0.000260332 4.60113
0.52 0.015 -0.0498929 -0.000170863 -0.000259591 4.57889
0.525 0.015 -0.0496776 -0.000216001 -0.000258624 4.55308
0.53 0.015 -0.0494204 -0.000261043 -0.000257432 4.52375
0.535 0.015 -0.0491215 -0.000305879 -0.000256015 4.49092
0.54 0.015 -0.0487813 -0.000350398 -0.000254375 4.45465
0.545 0.015 -0.0484002 -0.000394491 -0.000252512 4.41498
0.55 0.015 -0.0479787 -0.000438047 -0.000250431 4.37198
0.555 0.015 -0.0475174 -0.000480956 -0.000248133 4.32571
0.56 0.015 -0.0470171 -0.000523108 -0.000245623 4.27624
0.565 0.015 -0.0464785 -0.000564395 -0.000242903 4.22367
0.57 0.015 -0.0459026 -0.00060471 -0.00023998 4.16806
0.575 0.015 -0.0452904 -0.00064395 -0.000236857 4.10953
0.58 0.015 -0.0446429 -0.000682011 -0.000233542 4.04816
0.585 0.015 -0.0439614 -0.000718794 -0.000230039 3.98407
0.59 0.015 -0.043247 -0.000754203 -0.000226355 3.91737
0.595 0.015 -0.0425012 -0.000788146 -0.000222498 3.84818
0.6 0.015 -0.0417253 -0.000820536 -0.000218475 3.77661
0.605 0.015 -0.0409209 -0.000851288 -0.000214294 3.7028
0.61 0.015 -0.0400895 -0.000880324 -0.000209963 3.62687
0.615 0.015 -0.0392327 -0.000907572 -0.000205492 3.54897
0.62 0.015 -0.0383522 -0.000932963 -0.000200888 3.46924
0.625 0.015 -0.0374498 -0.000956437 -0.000196163 3.38782
0.63 0.015 -0.0365273 -0.000977939 -0.000191325 3.30486
0.635 0.015 -0.0355864 -0.00099742 -0.000186385 3.2205
0.64 0.015 -0.0346291 -0.00101484 -0.000181352 3.1349
0.645 0.015 -0.0336573 -0.00103017 -0.000176237 3.04821
0.65 0.015 -0.0326728 -0.00104337 -0.000171051 2.96059
0.655 0.015 -0.0316777 -0.00105443 -0.000165805 2.87219
0.66 0.015 -0.0306739 -0.00106334 -0.000160508 2.78317
0.665 0.015 -0.0296633 -0.0010701 -0.000155172 2.69369
0.67 0.015 -0.0286479 -0.0010747 -0.000149808 2.60389
0.675 0.015 -0.0276297 -0.00107717 -0.000144426 2.51395
0.68 0.015 -0.0266105 -0.00107751 -0.000139037 2.424
0.685 0.015 -0.0255924 -0.00107576 -0.000133652 2.33421
0.69 0.015 -0.0245771 -0.00107195 -0.00012828 2.24471
0.695 0.015 -0.0235666 -0.00106613 -0.000122933 2.15567
0.7 0.015 -0.0225627 -0.00105833 -0.00011762 2.06722
0.705 0.015 -0.021567 -0.00104863 -0.00011235 1.9795
0.71 0.015 -0.0205814 -0.00103707 -0.000107134 1.89265
0.715 0.015 -0.0196075 -0.00102373 -0.00010198 1.8068
0.72 0.015 -0.0186469 -0.00100867 -9.68973e-05 1.72208
0.725 0.015 -0.017701 -0.000991988 -9.18939e-05 1.63862
0.73 0.015 -0.0167715 -0.000973753 -8.69779e-05 1.55652
0.735 0.015 -0.0158595 -0.000954056 -8.21568e-05 1.4759
0.74 0.015 -0.0149665 -0.000932989 -7.74378e-05 1.39687
0.745 0.015 -0.0140936 -0.000910644 -7.28273e-05 1.31953
0.75 0.015 -0.013242 -0.000887121 -6.83317e-05 1.24397
0.755 0.015 -0.0124128 -0.000862516 -6.39564e-05 1.17028
0.76 0.015 -0.0116068 -0.000836932 -5.97068e-05 1.09854
0.765 0.015 -0.010825 -0.000810471 -5.55874e-05 1.02882
0.77 0.015 -0.0100681 -0.000783233 -5.16023e-05 0.961184
0.775 0.015 -0.00933676 -0.000755323 -4.77552e-05 0.895702
0.78 0.015 -0.00863165 -0.00072684 -4.40493e-05 0.832422
0.785 0.015 -0.00795323 -0.000697888 -4.0487e-05 0.771391
0.79 0.015 -0.00730192 -0.000668563 -3.70705e-05 0.712646
0.795 0.015 -0.00667802 -0.000638964 -3.38015e-05 0.656222
0.8 0.015 -0.00608179 -0.000609186 -3.06809e-05 0.602142
0.805 0.015 -0.00551336 -0.000579319 -2.77096e-05 0.550426
0.81 0.015 -0.00497281 -0.000549454 -2.48878e-05 0.501085
0.815 0.015 -0.00446012 -0.000519675 -2.22151e-05 0.454124
0.82 0.015 -0.0039752 -0.000490063 -1.9691e-05 0.409544
0.825 0.015 -0.00351789 -0.000460695 -1.73145e-05 0.367338
0.83 0.015 -0.00308796 -0.000431645 -1.5084e-05 0.327492