Title=" Lid Driven Flow"
VARIABLES="X","Y","U","V","psi","xi"
ZONE T= "BOX", I= 201, J=201, F=POINT
0 0 0 0 0.00236624 0
0.005 0 0 0 0 0
0.01 0 0 0 0 0
0.015 0 0 0 0 161.891
0.02 0 0 0 0 176.125
0.025 0 0 0 0 155.611
0.03 0 0 0 0 133.228
0.035 0 0 0 0 115.717
0.04 0 0 0 0 102.871
0.045 0 0 0 0 93.3435
0.05 0 0 0 0 86.0244
0.055 0 0 0 0 80.1802
0.06 0 0 0 0 75.3521
0.065 0 0 0 0 71.2515
0.07 0 0 0 0 67.691
0.075 0 0 0 0 64.5444
0.08 0 0 0 0 61.7239
0.085 0 0 0 0 59.1663
0.09 0 0 0 0 56.8254
0.095 0 0 0 0 54.6663
0.1 0 0 0 0 52.6625
0.105 0 0 0 0 50.7933
0.11 0 0 0 0 49.0423
0.115 0 0 0 0 47.3965
0.12 0 0 0 0 45.8451
0.125 0 0 0 0 44.3792
0.13 0 0 0 0 42.9914
0.135 0 0 0 0 41.6754
0.14 0 0 0 0 40.4255
0.145 0 0 0 0 39.237
0.15 0 0 0 0 38.1055
0.155 0 0 0 0 37.0271
0.16 0 0 0 0 35.9984
0.165 0 0 0 0 35.0161
0.17 0 0 0 0 34.0772
0.175 0 0 0 0 33.1791
0.18 0 0 0 0 32.319
0.185 0 0 0 0 31.4947
0.19 0 0 0 0 30.7038
0.195 0 0 0 0 29.9442
0.2 0 0 0 0 29.214
0.205 0 0 0 0 28.5112
0.21 0 0 0 0 27.834
0.215 0 0 0 0 27.1807
0.22 0 0 0 0 26.5498
0.225 0 0 0 0 25.9397
0.23 0 0 0 0 25.349
0.235 0 0 0 0 24.7763
0.24 0 0 0 0 24.2204
0.245 0 0 0 0 23.68
0.25 0 0 0 0 23.154
0.255 0 0 0 0 22.6413
0.26 0 0 0 0 22.141
0.265 0 0 0 0 21.652
0.27 0 0 0 0 21.1735
0.275 0 0 0 0 20.7047
0.28 0 0 0 0 20.2448
0.285 0 0 0 0 19.7931
0.29 0 0 0 0 19.3489
0.295 0 0 0 0 18.9115
0.3 0 0 0 0 18.4805
0.305 0 0 0 0 18.0553
0.31 0 0 0 0 17.6354
0.315 0 0 0 0 17.2204
0.32 0 0 0 0 16.81
0.325 0 0 0 0 16.4037
0.33 0 0 0 0 16.0012
0.335 0 0 0 0 15.6023
0.34 0 0 0 0 15.2067
0.345 0 0 0 0 14.8143
0.35 0 0 0 0 14.4249
0.355 0 0 0 0 14.0383
0.36 0 0 0 0 13.6545
0.365 0 0 0 0 13.2733
0.37 0 0 0 0 12.8948
0.375 0 0 0 0 12.5189
0.38 0 0 0 0 12.1457
0.385 0 0 0 0 11.7751
0.39 0 0 0 0 11.4073
0.395 0 0 0 0 11.0424
0.4 0 0 0 0 10.6804
0.405 0 0 0 0 10.3214
0.41 0 0 0 0 9.9657
0.415 0 0 0 0 9.61335
0.42 0 0 0 0 9.26456
0.425 0 0 0 0 8.91951
0.43 0 0 0 0 8.5784
0.435 0 0 0 0 8.24143
0.44 0 0 0 0 7.90884
0.445 0 0 0 0 7.58083
0.45 0 0 0 0 7.25764
0.455 0 0 0 0 6.93948
0.46 0 0 0 0 6.6266
0.465 0 0 0 0 6.31921
0.47 0 0 0 0 6.01754
0.475 0 0 0 0 5.7218
0.48 0 0 0 0 5.43221
0.485 0 0 0 0 5.14897
0.49 0 0 0 0 4.87227
0.495 0 0 0 0 4.60229
0.5 0 0 0 0 4.3392
0.505 0 0 0 0 4.08315
0.51 0 0 0 0 3.83429
0.515 0 0 0 0 3.59274
0.52 0 0 0 0 3.3586
0.525 0 0 0 0 3.13197
0.53 0 0 0 0 2.91291
0.535 0 0 0 0 2.70148
0.54 0 0 0 0 2.4977
0.545 0 0 0 0 2.3016
0.55 0 0 0 0 2.11317
0.555 0 0 0 0 1.9324
0.56 0 0 0 0 1.75923
0.565 0 0 0 0 1.59361
0.57 0 0 0 0 1.43547
0.575 0 0 0 0 1.28471
0.58 0 0 0 0 1.14124
0.585 0 0 0 0 1.00492
0.59 0 0 0 0 0.875624
0.595 0 0 0 0 0.753207
0.6 0 0 0 0 0.637508
0.605 0 0 0 0 0.528358
0.61 0 0 0 0 0.425581
0.615 0 0 0 0 0.328989
0.62 0 0 0 0 0.238392
0.625 0 0 0 0 0.15359
0.63 0 0 0 0 0.0743804
0.635 0 0 0 0 0.000557661
0.64 0 0 0 0 -0.0680876
0.645 0 0 0 0 -0.131766
0.65 0 0 0 0 -0.190689
0.655 0 0 0 0 -0.245067
0.66 0 0 0 0 -0.295113
0.665 0 0 0 0 -0.341036
0.67 0 0 0 0 -0.383043
0.675 0 0 0 0 -0.421341
0.68 0 0 0 0 -0.456132
0.685 0 0 0 0 -0.487618
0.69 0 0 0 0 -0.515995
0.695 0 0 0 0 -0.541456
0.7 0 0 0 0 -0.564189
0.705 0 0 0 0 -0.58438
0.71 0 0 0 0 -0.602206
0.715 0 0 0 0 -0.617843
0.72 0 0 0 0 -0.631456
0.725 0 0 0 0 -0.643206
0.73 0 0 0 0 -0.653247
0.735 0 0 0 0 -0.661722
0.74 0 0 0 0 -0.668768
0.745 0 0 0 0 -0.67451
0.75 0 0 0 0 -0.679063
0.755 0 0 0 0 -0.682533
0.76 0 0 0 0 -0.685013
0.765 0 0 0 0 -0.686583
0.77 0 0 0 0 -0.687313
0.775 0 0 0 0 -0.687258
0.78 0 0 0 0 -0.686462
0.785 0 0 0 0 -0.684957
0.79 0 0 0 0 -0.682762
0.795 0 0 0 0 -0.679885
0.8 0 0 0 0 -0.676323
0.805 0 0 0 0 -0.672063
0.81 0 0 0 0 -0.667083
0.815 0 0 0 0 -0.661352
0.82 0 0 0 0 -0.654836
0.825 0 0 0 0 -0.647491
0.83 0 0 0 0 -0.639272
0.835 0 0 0 0 -0.630132
0.84 0 0 0 0 -0.620022
0.845 0 0 0 0 -0.608895
0.85 0 0 0 0 -0.596706
0.855 0 0 0 0 -0.583415
0.86 0 0 0 0 -0.568988
0.865 0 0 0 0 -0.553398
0.87 0 0 0 0 -0.536627
0.875 0 0 0 0 -0.518667
0.88 0 0 0 0 -0.499524
0.885 0 0 0 0 -0.479214
0.89 0 0 0 0 -0.457771
0.895 0 0 0 0 -0.435243
0.9 0 0 0 0 -0.411692
0.905 0 0 0 0 -0.387201
0.91 0 0 0 0 -0.361869
0.915 0 0 0 0 -0.335815
0.92 0 0 0 0 -0.309176
0.925 0 0 0 0 -0.28211
0.93 0 0 0 0 -0.254795
0.935 0 0 0 0 -0.227429
0.94 0 0 0 0 -0.200233
0.945 0 0 0 0 -0.173447
0.95 0 0 0 0 -0.147335
0.955 0 0 0 0 -0.122184
0.96 0 0 0 0 -0.0983034
0.965 0 0 0 0 -0.0760274
0.97 0 0 0 0 -0.0557134
0.975 0 0 0 0 -0.0377408
0.98 0 0 0 0 -0.022506
0.985 0 0 0 0 -0.0104074
0.99 0 0 0 0 -0.00181095
0.995 0 0 0 0 0.0030304
1 0 0 0 0 0.00416534
0 0.005 0 0 0 0
0.005 0.005 0 0 0 0
0.01 0.005 0 0 0 73.7273
0.015 0.005 0 0 0 62.0445
0.02 0.005 0 0 0 45.6651
0.025 0.005 0 0 0 33.88
0.03 0.005 0 0 0 25.9864
0.035 0.005 0 0 0 20.5826
0.04 0.005 0 0 0 16.7215
0.045 0.005 0 0 0 13.8454
0.05 0.005 0 0 0 11.6291
0.055 0.005 0 0 0 9.87679
0.06 0.005 0 0 0 8.46499
0.065 0.005 0 0 0 7.31179
0.07 0.005 0 0 0 6.36036
0.075 0.005 0 0 0 5.5696
0.08 0.005 0 0 0 4.90883
0.085 0.005 0 0 0 4.35449
0.09 0.005 0 0 0 3.88812
0.095 0.005 0 0 0 3.49502
0.1 0.005 0 0 0 3.16332
0.105 0.005 0 0 0 2.88335
0.11 0.005 0 0 0 2.64715
0.115 0.005 0 0 0 2.44816
0.12 0.005 0 0 0 2.28093
0.125 0.005 0 0 0 2.14089
0.13 0.005 0 0 0 2.02426
0.135 0.005 0 0 0 1.92782
0.14 0.005 0 0 0 1.84889
0.145 0.005 0 0 0 1.78521
0.15 0.005 0 0 0 1.73485
0.155 0.005 0 0 0 1.69619
0.16 0.005 0 0 0 1.66786
0.165 0.005 0 0 0 1.64868
0.17 0.005 0 0 0 1.63766
0.175 0.005 0 0 0 1.63394
0.18 0.005 0 0 0 1.63679
0.185 0.005 0 0 0 1.6456
0.19 0.005 0 0 0 1.65981
0.195 0.005 0 0 0 1.67897
0.2 0.005 0 0 0 1.70266
0.205 0.005 0 0 0 1.73055
0.21 0.005 0 0 0 1.76231
0.215 0.005 0 0 0 1.79769
0.22 0.005 0 0 0 1.83642
0.225 0.005 0 0 0 1.87831
0.23 0.005 0 0 0 1.92315
0.235 0.005 0 0 0 1.97075
0.24 0.005 0 0 0 2.02097
0.245 0.005 0 0 0 2.07363
0.25 0.005 0 0 0 2.1286
0.255 0.005 0 0 0 2.18574
0.26 0.005 0 0 0 2.24491
0.265 0.005 0 0 0 2.30598
0.27 0.005 0 0 0 2.36882
0.275 0.005 0 0 0 2.4333
0.28 0.005 0 0 0 2.49931
0.285 0.005 0 0 0 2.56671
0.29 0.005 0 0 0 2.63537
0.295 0.005 0 0 0 2.70518
0.3 0.005 0 0 0 2.77599
0.305 0.005 0 0 0 2.84768
0.31 0.005 0 0 0 2.92011
0.315 0.005 0 0 0 2.99315
0.32 0.005 0 0 0 3.06666
0.325 0.005 0 0 0 3.14049
0.33 0.005 0 0 0 3.21452
0.335 0.005 0 0 0 3.28858
0.34 0.005 0 0 0 3.36253
0.345 0.005 0 0 0 3.43623
0.35 0.005 0 0 0 3.50953
0.355 0.005 0 0 0 3.58226
0.36 0.005 0 0 0 3.65428
0.365 0.005 0 0 0 3.72542
0.37 0.005 0 0 0 3.79555
0.375 0.005 0 0 0 3.86449
0.38 0.005 0 0 0 3.93209
0.385 0.005 0 0 0 3.99819
0.39 0.005 0 0 0 4.06265
0.395 0.005 0 0 0 4.12529
0.4 0.005 0 0 0 4.18598
0.405 0.005 0 0 0 4.24456
0.41 0.005 0 0 0 4.30088
0.415 0.005 0 0 0 4.35479
0.42 0.005 0 0 0 4.40616
0.425 0.005 0 0 0 4.45484
0.43 0.005 0 0 0 4.50069
0.435 0.005 0 0 0 4.54359
0.44 0.005 0 0 0 4.58342
0.445 0.005 0 0 0 4.62004
0.45 0.005 0 0 0 4.65335
0.455 0.005 0 0 0 4.68324
0.46 0.005 0 0 0 4.70961
0.465 0.005 0 0 0 4.73236
0.47 0.005 0 0 0 4.75141
0.475 0.005 0 0 0 4.76668
0.48 0.005 0 0 0 4.7781
0.485 0.005 0 0 0 4.78561
0.49 0.005 0 0 0 4.78916
0.495 0.005 0 0 0 4.7887
0.5 0.005 0 0 0 4.7842
0.505 0.005 0 0 0 4.77564
0.51 0.005 0 0 0 4.763
0.515 0.005 0 0 0 4.74628
0.52 0.005 0 0 0 4.72548
0.525 0.005 0 0 0 4.70063
0.53 0.005 0 0 0 4.67174
0.535 0.005 0 0 0 4.63885
0.54 0.005 0 0 0 4.60202
0.545 0.005 0 0 0 4.5613
0.55 0.005 0 0 0 4.51676
0.555 0.005 0 0 0 4.46847
0.56 0.005 0 0 0 4.41653
0.565 0.005 0 0 0 4.36103
0.57 0.005 0 0 0 4.30207
0.575 0.005 0 0 0 4.23978
0.58 0.005 0 0 0 4.17427
0.585 0.005 0 0 0 4.10569
0.59 0.005 0 0 0 4.03416
0.595 0.005 0 0 0 3.95983
0.6 0.005 0 0 0 3.88287
0.605 0.005 0 0 0 3.80342
0.61 0.005 0 0 0 3.72166
0.615 0.005 0 0 0 3.63775
0.62 0.005 0 0 0 3.55187
0.625 0.005 0 0 0 3.46421
0.63 0.005 0 0 0 3.37494
0.635 0.005 0 0 0 3.28424
0.64 0.005 0 0 0 3.19231
0.645 0.005 0 0 0 3.09932
0.65 0.005 0 0 0 3.00548
0.655 0.005 0 0 0 2.91096
0.66 0.005 0 0 0 2.81595
0.665 0.005 0 0 0 2.72065
0.67 0.005 0 0 0 2.62522
0.675 0.005 0 0 0 2.52985
0.68 0.005 0 0 0 2.43472
0.685 0.005 0 0 0 2.34001
0.69 0.005 0 0 0 2.24586
0.695 0.005 0 0 0 2.15246
0.7 0.005 0 0 0 2.05995
0.705 0.005 0 0 0 1.9685
0.71 0.005 0 0 0 1.87823
0.715 0.005 0 0 0 1.78929
0.72 0.005 0 0 0 1.70181
0.725 0.005 0 0 0 1.61591
0.73 0.005 0 0 0 1.5317
0.735 0.005 0 0 0 1.4493
0.74 0.005 0 0 0 1.3688
0.745 0.005 0 0 0 1.29029
0.75 0.005 0 0 0 1.21385
0.755 0.005 0 0 0 1.13956
0.76 0.005 0 0 0 1.06748
0.765 0.005 0 0 0 0.997672
0.77 0.005 0 0 0 0.93018
0.775 0.005 0 0 0 0.865047
0.78 0.005 0 0 0 0.802306
0.785 0.005 0 0 0 0.741983
0.79 0.005 0 0 0 0.684095
0.795 0.005 0 0 0 0.628655
0.8 0.005 0 0 0 0.575666
0.805 0.005 0 0 0 0.525126
0.81 0.005 0 0 0 0.477026
0.815 0.005 0 0 0 0.431353
0.82 0.005 0 0 0 0.388086
0.825 0.005 0 0 0 0.347201
0.83 0.005 0 0 0 0.308667
0.835 0.005 0 0 0 0.272452
0.84 0.005 0 0 0 0.238516
0.845 0.005 0 0 0 0.206818
0.85 0.005 0 0 0 0.177314
0.855 0.005 0 0 0 0.149954
0.86 0.005 0 0 0 0.124689
0.865 0.005 0 0 0 0.101466
0.87 0.005 0 0 0 0.0802306
0.875 0.005 0 0 0 0.060926
0.88 0.005 0 0 0 0.0434947
0.885 0.005 0 0 0 0.0278777
0.89 0.005 0 0 0 0.0140154
0.895 0.005 0 0 0 0.001847
0.9 0.005 0 0 0 -0.00868887
0.905 0.005 0 0 0 -0.0176543
0.91 0.005 0 0 0 -0.0251122
0.915 0.005 0 0 0 -0.0311263
0.92 0.005 0 0 0 -0.0357616
0.925 0.005 0 0 0 -0.0390845
0.93 0.005 0 0 0 -0.0411637
0.935 0.005 0 0 0 -0.0420708
0.94 0.005 0 0 0 -0.0418814
0.945 0.005 0 0 0 -0.0406765
0.95 0.005 0 0 0 -0.0385447
0.955 0.005 0 0 0 -0.0355846
0.96 0.005 0 0 0 -0.0319083
0.965 0.005 0 0 0 -0.027646
0.97 0.005 0 0 0 -0.0229526
0.975 0.005 0 0 0 -0.0180159
0.98 0.005 0 0 0 -0.0130678
0.985 0.005 0 0 0 -0.00839857
0.99 0.005 0 0 0 -0.00436964
0.995 0.005 0 0 0 -0.00141045
1 0.005 0 0 0 6.09681e-05
0 0.01 0 0 6.09681e-05 0
0.005 0.01 0 0 0 -326.273
0.01 0.01 -0.180017 0.0775557 -0.000921591 -44.4255
0.015 0.01 -0.184745 -0.0350777 -0.000775557 9.50501
0.02 0.01 -0.156168 -0.0352057 -0.000570814 19.0994
0.025 0.01 -0.127291 -0.0245984 -0.0004235 18.9822
0.03 0.01 -0.103926 -0.0166218 -0.00032483 16.8291
0.035 0.01 -0.0858216 -0.0115811 -0.000257282 14.5174
0.04 0.01 -0.071763 -0.00842146 -0.000209019 12.4762
0.045 0.01 -0.0606835 -0.00636551 -0.000173068 10.7579
0.05 0.01 -0.0518059 -0.00496077 -0.000145364 9.32527
0.055 0.01 -0.0445877 -0.00395513 -0.00012346 8.12856
0.06 0.01 -0.038649 -0.00320624 -0.000105812 7.12393
0.065 0.01 -0.0337179 -0.00263078 -9.13973e-05 6.27626
0.07 0.01 -0.0295949 -0.00217773 -7.95044e-05 5.55795
0.075 0.01 -0.0261297 -0.0018144 -6.96199e-05 4.94726
0.08 0.01 -0.023206 -0.00151888 -6.13603e-05 4.42681
0.085 0.01 -0.0207326 -0.00127587 -5.4431e-05 3.98255
0.09 0.01 -0.0186362 -0.00107432 -4.86014e-05 3.603
0.095 0.01 -0.0168574 -0.000905987 -4.36877e-05 3.27864
0.1 0.01 -0.0153475 -0.000764583 -3.95414e-05 3.00156
0.105 0.01 -0.0140664 -0.000645205 -3.60417e-05 2.76511
0.11 0.01 -0.0129806 -0.000543971 -3.30893e-05 2.56368
0.115 0.01 -0.012062 -0.000457768 -3.06019e-05 2.39253
0.12 0.01 -0.0112874 -0.000384073 -2.85115e-05 2.24763
0.125 0.01 -0.0106368 -0.000320825 -2.6761e-05 2.12554
0.13 0.01 -0.0100937 -0.000266331 -2.53031e-05 2.02334
0.135 0.01 -0.00964397 -0.000219193 -2.40976e-05 1.93853
0.14 0.01 -0.00927561 -0.000178253 -2.3111e-05 1.86898
0.145 0.01 -0.00897845 -0.000142543 -2.2315e-05 1.81284
0.15 0.01 -0.00874387 -0.000111258 -2.16855e-05 1.76855
0.155 0.01 -0.00856448 -8.37251e-05 -2.12023e-05 1.73476
0.16 0.01 -0.00843397 -5.93781e-05 -2.08482e-05 1.71031
0.165 0.01 -0.00834697 -3.77425e-05 -2.06084e-05 1.69419
0.17 0.01 -0.00829885 -1.84193e-05 -2.04707e-05 1.68554
0.175 0.01 -0.00828563 -1.07275e-06 -2.04242e-05 1.6836
0.18 0.01 -0.00830391 1.458e-05 -2.04599e-05 1.68775
0.185 0.01 -0.00835073 2.87771e-05 -2.05699e-05 1.6974
0.19 0.01 -0.00842353 4.1719e-05 -2.07475e-05 1.71208
0.195 0.01 -0.0085201 5.35743e-05 -2.0987e-05 1.73135
0.2 0.01 -0.00863849 6.44849e-05 -2.12832e-05 1.75483
0.205 0.01 -0.008777 7.45696e-05 -2.16318e-05 1.7822
0.21 0.01 -0.00893414 8.3928e-05 -2.20289e-05 1.81315
0.215 0.01 -0.00910857 9.26431e-05 -2.2471e-05 1.84743
0.22 0.01 -0.0092991 0.000100784 -2.29552e-05 1.88479
0.225 0.01 -0.00950465 0.000108408 -2.34788e-05 1.92503
0.23 0.01 -0.00972426 0.000115561 -2.40393e-05 1.96795
0.235 0.01 -0.00995701 0.000122283 -2.46344e-05 2.01336
0.24 0.01 -0.0102021 0.000128604 -2.52621e-05 2.0611
0.245 0.01 -0.0104587 0.000134548 -2.59204e-05 2.11101
0.25 0.01 -0.0107261 0.000140136 -2.66075e-05 2.16294
0.255 0.01 -0.0110037 0.000145382 -2.73217e-05 2.21674
0.26 0.01 -0.0112906 0.000150296 -2.80613e-05 2.27229
0.265 0.01 -0.0115863 0.000154887 -2.88247e-05 2.32944
0.27 0.01 -0.0118902 0.000159159 -2.96102e-05 2.38807
0.275 0.01 -0.0122015 0.000163115 -3.04163e-05 2.44804
0.28 0.01 -0.0125196 0.000166755 -3.12414e-05 2.50923
0.285 0.01 -0.012844 0.000170079 -3.20839e-05 2.57151
0.29 0.01 -0.0131739 0.000173084 -3.29422e-05 2.63475
0.295 0.01 -0.0135087 0.000175767 -3.38147e-05 2.69882
0.3 0.01 -0.0138479 0.000178123 -3.46999e-05 2.7636
0.305 0.01 -0.0141906 0.000180147 -3.5596e-05 2.82895
0.31 0.01 -0.0145364 0.000181835 -3.65014e-05 2.89475
0.315 0.01 -0.0148844 0.000183179 -3.74144e-05 2.96086
0.32 0.01 -0.0152341 0.000184176 -3.83333e-05 3.02715
0.325 0.01 -0.0155847 0.000184818 -3.92562e-05 3.09349
0.33 0.01 -0.0159356 0.0001851 -4.01815e-05 3.15974
0.335 0.01 -0.016286 0.000185016 -4.11073e-05 3.22577
0.34 0.01 -0.0166352 0.000184561 -4.20318e-05 3.29143
0.345 0.01 -0.0169826 0.00018373 -4.2953e-05 3.3566
0.35 0.01 -0.0173273 0.00018252 -4.38692e-05 3.42112
0.355 0.01 -0.0176687 0.000180926 -4.47784e-05 3.48488
0.36 0.01 -0.0180061 0.000178944 -4.56786e-05 3.54771
0.365 0.01 -0.0183386 0.000176574 -4.65679e-05 3.6095
0.37 0.01 -0.0186656 0.000173813 -4.74445e-05 3.67009
0.375 0.01 -0.0189863 0.00017066 -4.83062e-05 3.72935
0.38 0.01 -0.0193 0.000167116 -4.91513e-05 3.78715
0.385 0.01 -0.0196059 0.000163182 -4.99776e-05 3.84335
0.39 0.01 -0.0199034 0.00015886 -5.07833e-05 3.89781
0.395 0.01 -0.0201917 0.000154153 -5.15664e-05 3.95041
0.4 0.01 -0.0204702 0.000149065 -5.2325e-05 4.00102
0.405 0.01 -0.020738 0.000143602 -5.30572e-05 4.04951
0.41 0.01 -0.0209946 0.00013777 -5.37612e-05 4.09576
0.415 0.01 -0.0212393 0.000131576 -5.44352e-05 4.13964
0.42 0.01 -0.0214714 0.00012503 -5.50773e-05 4.18105
0.425 0.01 -0.0216903 0.00011814 -5.56857e-05 4.21986
0.43 0.01 -0.0218954 0.000110919 -5.62589e-05 4.25599
0.435 0.01 -0.0220861 0.000103377 -5.67952e-05 4.28931
0.44 0.01 -0.0222619 9.55291e-05 -5.7293e-05 4.31974
0.445 0.01 -0.0224222 8.73882e-05 -5.77508e-05 4.34718
0.45 0.01 -0.0225666 7.89701e-05 -5.81672e-05 4.37155
0.455 0.01 -0.0226945 7.02912e-05 -5.85408e-05 4.39277
0.46 0.01 -0.0228055 6.1369e-05 -5.88704e-05 4.41076
0.465 0.01 -0.0228992 5.2222e-05 -5.91548e-05 4.42546
0.47 0.01 -0.0229753 4.28696e-05 -5.9393e-05 4.43681
0.475 0.01 -0.0230335 3.33321e-05 -5.95838e-05 4.44476
0.48 0.01 -0.0230733 2.36308e-05 -5.97266e-05 4.44926
0.485 0.01 -0.0230947 1.37875e-05 -5.98205e-05 4.45027
0.49 0.01 -0.0230974 3.82501e-06 -5.98649e-05 4.44777
0.495 0.01 -0.0230812 -6.23329e-06 -5.98591e-05 4.44173
0.5 0.01 -0.023046 -1.63634e-05 -5.98029e-05 4.43215
0.505 0.01 -0.0229917 -2.65408e-05 -5.96959e-05 4.419
0.51 0.01 -0.0229184 -3.67407e-05 -5.95379e-05 4.4023
0.515 0.01 -0.022826 -4.69376e-05 -5.93289e-05 4.38206
0.52 0.01 -0.0227146 -5.7106e-05 -5.90689e-05 4.3583
0.525 0.01 -0.0225843 -6.72201e-05 -5.87582e-05 4.33105
0.53 0.01 -0.0224352 -7.72543e-05 -5.83971e-05 4.30033
0.535 0.01 -0.0222676 -8.71825e-05 -5.79861e-05 4.2662
0.54 0.01 -0.0220817 -9.69793e-05 -5.75257e-05 4.22871
0.545 0.01 -0.0218779 -0.000106619 -5.70167e-05 4.18792
0.55 0.01 -0.0216564 -0.000116077 -5.64599e-05 4.1439
0.555 0.01 -0.0214176 -0.000125328 -5.58563e-05 4.09672
0.56 0.01 -0.021162 -0.000134348 -5.52071e-05 4.04647
0.565 0.01 -0.02089 -0.000143113 -5.45133e-05 3.99324
0.57 0.01 -0.0206022 -0.000151601 -5.37763e-05 3.93712
0.575 0.01 -0.0202991 -0.000159791 -5.29977e-05 3.87823
0.58 0.01 -0.0199813 -0.00016766 -5.21788e-05 3.81667
0.585 0.01 -0.0196494 -0.000175189 -5.13215e-05 3.75257
0.59 0.01 -0.019304 -0.00018236 -5.04274e-05 3.68603
0.595 0.01 -0.0189459 -0.000189154 -4.94983e-05 3.61721
0.6 0.01 -0.0185758 -0.000195556 -4.85362e-05 3.54621
0.605 0.01 -0.0181945 -0.00020155 -4.75431e-05 3.4732
0.61 0.01 -0.0178026 -0.000207124 -4.65211e-05 3.3983
0.615 0.01 -0.017401 -0.000212265 -4.54723e-05 3.32166
0.62 0.01 -0.0169906 -0.000216964 -4.43988e-05 3.24343
0.625 0.01 -0.016572 -0.000221211 -4.3303e-05 3.16377
0.63 0.01 -0.0161462 -0.000224999 -4.21871e-05 3.08283
0.635 0.01 -0.0157141 -0.000228324 -4.10533e-05 3.00075
0.64 0.01 -0.0152764 -0.000231181 -3.99042e-05 2.9177
0.645 0.01 -0.014834 -0.000233569 -3.87419e-05 2.83384
0.65 0.01 -0.0143879 -0.000235487 -3.75688e-05 2.74932
0.655 0.01 -0.0139388 -0.000236937 -3.63873e-05 2.6643
0.66 0.01 -0.0134876 -0.000237923 -3.51997e-05 2.57892
0.665 0.01 -0.0130352 -0.000238448 -3.40084e-05 2.49336
0.67 0.01 -0.0125824 -0.00023852 -3.28155e-05 2.40775
0.675 0.01 -0.01213 -0.000238147 -3.16234e-05 2.32225
0.68 0.01 -0.0116788 -0.000237337 -3.04343e-05 2.237
0.685 0.01 -0.0112297 -0.000236103 -2.92503e-05 2.15215
0.69 0.01 -0.0107833 -0.000234456 -2.80735e-05 2.06783
0.695 0.01 -0.0103405 -0.000232409 -2.6906e-05 1.98419
0.7 0.01 -0.00990197 -0.000229979 -2.57497e-05 1.90135
0.705 0.01 -0.00946834 -0.00022718 -2.46064e-05 1.81943
0.71 0.01 -0.00904032 -0.000224029 -2.34781e-05 1.73856
0.715 0.01 -0.00861854 -0.000220544 -2.23663e-05 1.65885
0.72 0.01 -0.00820358 -0.000216744 -2.12728e-05 1.58041
0.725 0.01 -0.00779602 -0.000212647 -2.0199e-05 1.50334
0.73 0.01 -0.00739639 -0.000208274 -1.91465e-05 1.42774
0.735 0.01 -0.00700516 -0.000203645 -1.81164e-05 1.35371
0.74 0.01 -0.00662281 -0.000198779 -1.71101e-05 1.28131
0.745 0.01 -0.00624976 -0.000193698 -1.61288e-05 1.21064
0.75 0.01 -0.00588637 -0.000188423 -1.51733e-05 1.14176
0.755 0.01 -0.005533 -0.000182974 -1.42446e-05 1.07474
0.76 0.01 -0.00518995 -0.000177372 -1.33436e-05 1.00963
0.765 0.01 -0.00485749 -0.000171637 -1.2471e-05 0.946481
0.77 0.01 -0.00453586 -0.00016579 -1.16273e-05 0.88534
0.775 0.01 -0.00422524 -0.00015985 -1.08131e-05 0.826245
0.78 0.01 -0.00392581 -0.000153837 -1.00289e-05 0.769225
0.785 0.01 -0.00363768 -0.000147769 -9.27483e-06 0.714306
0.79 0.01 -0.00336095 -0.000141664 -8.55123e-06 0.661506
0.795 0.01 -0.00309567 -0.000135541 -7.85822e-06 0.610839
0.8 0.01 -0.00284188 -0.000129415 -7.19585e-06 0.562311
0.805 0.01 -0.00259957 -0.000123302 -6.56409e-06 0.515923
0.81 0.01 -0.00236872 -0.000117218 -5.96284e-06 0.471674
0.815 0.01 -0.00214926 -0.000111177 -5.39192e-06 0.429553
0.82 0.01 -0.00194111 -0.000105191 -4.85108e-06 0.389549
0.825 0.01 -0.00174417 -9.92737e-05 -4.34001e-06 0.351642
0.83 0.01 -0.0015583 -9.34361e-05 -3.85834e-06 0.315812
0.835 0.01 -0.00138336 -8.76887e-05 -3.40564e-06 0.282032
0.84 0.01 -0.00121917 -8.20411e-05 -2.98144e-06 0.250274
0.845 0.01 -0.00106556 -7.65019e-05 -2.58521e-06 0.220504
0.85 0.01 -0.00092232 -7.10788e-05 -2.2164e-06 0.192688
0.855 0.01 -0.000789231 -6.57788e-05 -1.87441e-06 0.166787
0.86 0.01 -0.000666067 -6.06078e-05 -1.55859e-06 0.14276
0.865 0.01 -0.000552587 -5.5571e-05 -1.26831e-06 0.120564
0.87 0.01 -0.000448542 -5.0673e-05 -1.00286e-06 0.100153
0.875 0.01 -0.000353674 -4.59175e-05 -7.6155e-07 0.0814819
0.88 0.01 -0.000267717 -4.13078e-05 -5.43657e-07 0.0645009
0.885 0.01 -0.000190398 -3.68465e-05 -3.48445e-07 0.0491603
0.89 0.01 -0.000121439 -3.25358e-05 -1.75166e-07 0.0354088
0.895 0.01 -6.0558e-05 -2.83777e-05 -2.30612e-08 0.0231939
0.9 0.01 -7.46599e-06 -2.4374e-05 1.08637e-07 0.0124619
0.905 0.01 3.81294e-05 -2.05266e-05 2.20704e-07 0.00315767
0.91 0.01 7.65261e-05 -1.68375e-05 3.13927e-07 -0.00477504
0.915 0.01 0.000108028 -1.33093e-05 3.89102e-07 -0.0113941
0.92 0.01 0.000132945 -9.94542e-06 4.47042e-07 -0.0167591
0.925 0.01 0.000151598 -6.75048e-06 4.88577e-07 -0.0209319
0.93 0.01 0.000164319 -3.73082e-06 5.14566e-07 -0.023977
0.935 0.01 0.000171456 -8.95144e-07 5.25903e-07 -0.0259626
0.94 0.01 0.000173377 1.74464e-06 5.23533e-07 -0.0269609
0.945 0.01 0.000170477 4.17239e-06 5.0847e-07 -0.0270503
0.95 0.01 0.000163188 6.36623e-06 4.81821e-07 -0.0263159
0.955 0.01 0.000151989 8.29674e-06 4.44818e-07 -0.0248523
0.96 0.01 0.000137418 9.92425e-06 3.98862e-07 -0.0227654
0.965 0.01 0.000120094 1.11954e-05 3.45582e-07 -0.0201757
0.97 0.01 0.000100739 1.20384e-05 2.86913e-07 -0.017221
0.975 0.01 8.02041e-05 1.23565e-05 2.25202e-07 -0.01406
0.98 0.01 5.95052e-05 1.2022e-05 1.6335e-07 -0.0108737
0.985 0.01 3.98512e-05 1.08729e-05 1.04983e-07 -0.00786211
0.99 0.01 2.26568e-05 8.73526e-06 5.46209e-08 -0.00522804
0.995 0.01 9.48101e-06 5.5383e-06 1.76306e-08 -0.00312591
1 0.01 1.75872e-06 1.76306e-06 -7.62257e-10 -0.00153069
0 0.015 0 0 -0.00140697 0
0.005 0.015 0 0 0 -255.986
0.01 0.015 -0.152788 0.184745 -0.00180017 -79.2869
0.015 0.015 -0.206059 -0.0238486 -0.00184745 -16.6493
0.02 0.015 -0.204316 -0.0574537 -0.00156168 2.33618
0.025 0.015 -0.184301 -0.052242 -0.00127291 7.97277
0.03 0.015 -0.160909 -0.0414695 -0.00103926 9.31273
0.035 0.015 -0.139122 -0.0321634 -0.000858216 9.19262
0.04 0.015 -0.120204 -0.0251381 -0.00071763 8.58434
0.045 0.015 -0.104159 -0.0199571 -0.000606835 7.84307
0.05 0.015 -0.0906355 -0.0160957 -0.000518059 7.10236
0.055 0.015 -0.0792322 -0.0131569 -0.000445877 6.41126
0.06 0.015 -0.0695913 -0.0108698 -0.00038649 5.7854
0.065 0.015 -0.0614154 -0.00905405 -0.000337179 5.2269
0.07 0.015 -0.0544625 -0.00758821 -0.000295949 4.73255
0.075 0.015 -0.0485365 -0.00638886 -0.000261296 4.29715
0.08 0.015 -0.0434773 -0.00539701 -0.00023206 3.91502
0.085 0.015 -0.0391534 -0.0045698 -0.000207326 3.58061
0.09 0.015 -0.0354561 -0.00387518 -0.000186362 3.2887
0.095 0.015 -0.0322946 -0.00328861 -0.000168574 3.03456
0.1 0.015 -0.0295927 -0.00279094 -0.000153475 2.81391
0.105 0.015 -0.0272864 -0.00236694 -0.000140664 2.62294
0.11 0.015 -0.0253214 -0.00200434 -0.000129805 2.45825
0.115 0.015 -0.0236518 -0.00169315 -0.00012062 2.31684
0.12 0.015 -0.0222383 -0.00142516 -0.000112873 2.19606
0.125 0.015 -0.0210478 -0.00119359 -0.000106368 2.09357
0.13 0.015 -0.0200517 -0.0009928 -0.000100937 2.00732
0.135 0.015 -0.0192257 -0.000818077 -9.64393e-05 1.93551
0.14 0.015 -0.0185491 -0.00066548 -9.27557e-05 1.87655
0.145 0.015 -0.0180039 -0.000531697 -8.97842e-05 1.82905
0.15 0.015 -0.0175748 -0.000413941 -8.74383e-05 1.79179
0.155 0.015 -0.0172488 -0.00030986 -8.56444e-05 1.76371
0.16 0.015 -0.0170144 -0.00021747 -8.43394e-05 1.74387
0.165 0.015 -0.0168619 -0.000135091 -8.34694e-05 1.73145
0.17 0.015 -0.0167829 -6.13031e-05 -8.29881e-05 1.72574
0.175 0.015 -0.0167701 5.09702e-06 -8.2856e-05 1.72609
0.18 0.015 -0.0168171 6.51278e-05 -8.30388e-05 1.73195
0.185 0.015 -0.0169185 0.000119651 -8.3507e-05 1.74283
0.19 0.015 -0.0170695 0.000169398 -8.42351e-05 1.7583
0.195 0.015 -0.0172658 0.000214983 -8.52008e-05 1.77796
0.2 0.015 -0.0175038 0.000256929 -8.63847e-05 1.80147
0.205 0.015 -0.0177803 0.000295674 -8.77698e-05 1.82853
0.21 0.015 -0.0180923 0.000331587 -8.93412e-05 1.85886
0.215 0.015 -0.0184373 0.000364976 -9.10855e-05 1.89221
0.22 0.015 -0.0188129 0.000396101 -9.29908e-05 1.92835
0.225 0.015 -0.0192171 0.000425175 -9.50464e-05 1.96706
0.23 0.015 -0.0196479 0.000452376 -9.72424e-05 2.00817
0.235 0.015 -0.0201035 0.000477848 -9.957e-05 2.05149
0.24 0.015 -0.0205823 0.00050171 -0.000102021 2.09685
0.245 0.015 -0.0210827 0.000524056 -0.000104587 2.14409
0.25 0.015 -0.0216033 0.000544962 -0.000107261 2.19306
0.255 0.015 -0.0221426 0.000564484 -0.000110037 2.24362
0.26 0.015 -0.0226993 0.000582668 -0.000112906 2.29563
0.265 0.015 -0.023272 0.000599543 -0.000115863 2.34895
0.27 0.015 -0.0238594 0.000615132 -0.000118902 2.40344
0.275 0.015 -0.0244603 0.000629445 -0.000122015 2.45898
0.28 0.015 -0.0250733 0.00064249 -0.000125196 2.51544
0.285 0.015 -0.0256973 0.000654265 -0.00012844 2.57268
0.29 0.015 -0.0263309 0.000664764 -0.000131739 2.63059
0.295 0.015 -0.0269729 0.000673978 -0.000135087 2.68903
0.3 0.015 -0.0276219 0.000681894 -0.000138479 2.74789
0.305 0.015 -0.0282767 0.000688498 -0.000141907 2.80702
0.31 0.015 -0.028936 0.000693773 -0.000145364 2.86631
0.315 0.015 -0.0295985 0.000697703 -0.000148845 2.92562
0.32 0.015 -0.0302628 0.000700268 -0.000152341 2.98484
0.325 0.015 -0.0309276 0.000701452 -0.000155848 3.04384
0.33 0.015 -0.0315916 0.000701238 -0.000159356 3.10248
0.335 0.015 -0.0322534 0.00069961 -0.00016286 3.16065
0.34 0.015 -0.0329117 0.000696552 -0.000166353 3.21822
0.345 0.015 -0.0335649 0.000692053 -0.000169826 3.27505
0.35 0.015 -0.0342119 0.0006861 -0.000173274 3.33104
0.355 0.015 -0.0348511 0.000678686 -0.000176688 3.38604
0.36 0.015 -0.0354812 0.000669804 -0.000180061 3.43995
0.365 0.015 -0.0361009 0.000659452 -0.000183387 3.49263
0.37 0.015 -0.0367086 0.000647628 -0.000186656 3.54397
0.375 0.015 -0.0373031 0.000634336 -0.000189863 3.59385
0.38 0.015 -0.037883 0.000619582 -0.000193 3.64216
0.385 0.015 -0.0384469 0.000603377 -0.00019606 3.68877
0.39 0.015 -0.0389935 0.000585733 -0.000199035 3.73359
0.395 0.015 -0.0395215 0.000566669 -0.000201918 3.7765
0.4 0.015 -0.0400296 0.000546205 -0.000204703 3.81739
0.405 0.015 -0.0405165 0.000524367 -0.000207381 3.85617
0.41 0.015 -0.040981 0.000501184 -0.000209947 3.89274
0.415 0.015 -0.0414219 0.000476689 -0.000212394 3.927
0.42 0.015 -0.041838 0.000450919 -0.000214715 3.95887
0.425 0.015 -0.0422282 0.000423915 -0.000216904 3.98826
0.43 0.015 -0.0425914 0.000395723 -0.000218955 4.01509
0.435 0.015 -0.0429267 0.000366393 -0.000220862 4.03929
0.44 0.015 -0.043233 0.000335976 -0.00022262 4.06078
0.445 0.015 -0.0435093 0.00030453 -0.000224223 4.07951
0.45 0.015 -0.0437549 0.000272116 -0.000225667 4.09541
0.455 0.015 -0.043969 0.000238797 -0.000226946 4.10843
0.46 0.015 -0.0441508 0.000204642 -0.000228056 4.11852
0.465 0.015 -0.0442996 0.000169721 -0.000228993 4.12565
0.47 0.015 -0.0444148 0.000134109 -0.000229755 4.12977
0.475 0.015 -0.0444959 9.78832e-05 -0.000230336 4.13086
0.48 0.015 -0.0445424 6.11227e-05 -0.000230735 4.1289
0.485 0.015 -0.0445541 2.39102e-05 -0.000230949 4.12387
0.49 0.015 -0.0445304 -1.36694e-05 -0.000230975 4.11577
0.495 0.015 -0.0444713 -5.15293e-05 -0.000230813 4.10458
0.5 0.015 -0.0443766 -8.95809e-05 -0.000230461 4.09032
0.505 0.015 -0.0442463 -0.000127734 -0.000229919 4.073
0.51 0.015 -0.0440803 -0.000165897 -0.000229186 4.05263
0.515 0.015 -0.0438787 -0.000203978 -0.000228261 4.02924
0.52 0.015 -0.0436418 -0.000241884 -0.000227147 4.00286
0.525 0.015 -0.0433698 -0.000279521 -0.000225844 3.97352
0.53 0.015 -0.0430631 -0.000316797 -0.000224354 3.94128
0.535 0.015 -0.0427221 -0.000353618 -0.000222678 3.90617
0.54 0.015 -0.0423474 -0.000389893 -0.000220819 3.86827
0.545 0.015 -0.0419395 -0.00042553 -0.00021878 3.82762
0.55 0.015 -0.0414992 -0.00046044 -0.000216565 3.7843
0.555 0.015 -0.0410271 -0.000494536 -0.000214178 3.73838
0.56 0.015 -0.0405242 -0.000527732 -0.000211622 3.68994
0.565 0.015 -0.0399913 -0.000559944 -0.000208902 3.63906
0.57 0.015 -0.0394295 -0.000591093 -0.000206024 3.58584
0.575 0.015 -0.0388397 -0.000621101 -0.000202993 3.53037
0.58 0.015 -0.0382231 -0.000649896 -0.000199814 3.47274
0.585 0.015 -0.0375809 -0.000677408 -0.000196495 3.41307
0.59 0.015 -0.0369143 -0.000703571 -0.000193042 3.35145
0.595 0.015 -0.0362246 -0.000728325 -0.000189461 3.288
0.6 0.015 -0.0355132 -0.000751613 -0.00018576 3.22283
0.605 0.015 -0.0347814 -0.000773385 -0.000181946 3.15606
0.61 0.015 -0.0340306 -0.000793594 -0.000178028 3.08781
0.615 0.015 -0.0332624 -0.000812201 -0.000174012 3.0182
0.62 0.015 -0.0324782 -0.000829169 -0.000169907 2.94735
0.625 0.015 -0.0316795 -0.000844471 -0.000165721 2.8754
0.63 0.015 -0.0308679 -0.000858082 -0.000161464 2.80245
0.635 0.015 -0.030045 -0.000869986 -0.000157142 2.72865
0.64 0.015 -0.0292122 -0.000880171 -0.000152765 2.65412
0.645 0.015 -0.0283713 -0.000888632 -0.000148342 2.57899
0.65 0.015 -0.0275237 -0.00089537 -0.00014388 2.50338
0.655 0.015 -0.0266711 -0.000900392 -0.000139389 2.42743
0.66 0.015 -0.0258149 -0.00090371 -0.000134877 2.35125
0.665 0.015 -0.0249568 -0.000905342 -0.000130353 2.27498
0.67 0.015 -0.0240983 -0.000905314 -0.000125825 2.19873
0.675 0.015 -0.0232409 -0.000903654 -0.000121301 2.12263
0.68 0.015 -0.022386 -0.000900398 -0.000116789 2.04679
0.685 0.015 -0.0215351 -0.000895585 -0.000112298 1.97133
0.69 0.015 -0.0206896 -0.00088926 -0.000107834 1.89637
0.695 0.015 -0.0198508 -0.000881472 -0.000103406 1.82201
0.7 0.015 -0.0190202 -0.000872275 -9.90205e-05 1.74835
0.705 0.015 -0.0181988 -0.000861726 -9.46842e-05 1.67551
0.71 0.015 -0.0173879 -0.000849885 -9.0404e-05 1.60358
0.715 0.015 -0.0165888 -0.000836816 -8.61861e-05 1.53265
0.72 0.015 -0.0158024 -0.000822586 -8.20365e-05 1.46281
0.725 0.015 -0.0150298 -0.000807264 -7.79608e-05 1.39414
0.73 0.015 -0.0142721 -0.000790921 -7.39644e-05 1.32674
0.735 0.015 -0.01353 -0.000773629 -7.00522e-05 1.26066
0.74 0.015 -0.0128044 -0.000755462 -6.62286e-05 1.19599
0.745 0.015 -0.0120962 -0.000736496 -6.2498e-05 1.13279
0.75 0.015 -0.0114059 -0.000716804 -5.88641e-05 1.07111
0.755 0.015 -0.0107344 -0.000696462 -5.53304e-05 1.01102
0.76 0.015 -0.0100821 -0.000675545 -5.18999e-05 0.952552
0.765 0.015 -0.00944945 -0.000654126 -4.85752e-05 0.895764
0.77 0.015 -0.00883703 -0.00063228 -4.53589e-05 0.840692
0.775 0.015 -0.00824516 -0.000610078 -4.22527e-05 0.787368
0.78 0.015 -0.00767415 -0.00058759 -3.92583e-05 0.735823
0.785 0.015 -0.00712424 -0.000564884 -3.6377e-05 0.686079
0.79 0.015 -0.00659562 -0.000542027 -3.36096e-05 0.638157
0.795 0.015 -0.00608842 -0.000519083 -3.09569e-05 0.592071
0.8 0.015 -0.00560271 -0.000496113 -2.84189e-05 0.54783
0.805 0.015 -0.00513849 -0.000473175 -2.59958e-05 0.505439
0.81 0.015 -0.00469573 -0.000450325 -2.36872e-05 0.4649
0.815 0.015 -0.00427435 -0.000427615 -2.14926e-05 0.426209
0.82 0.015 -0.0038742 -0.000405096 -1.94111e-05 0.389359
0.825 0.015 -0.0034951 -0.000382813 -1.74417e-05 0.354339
0.83 0.015 -0.00313683 -0.000360809 -1.5583e-05 0.321134