Title=" Lid Driven Flow"
VARIABLES="X","Y","U","V","psi","xi"
ZONE T= "BOX", I= 201, J=201, F=POINT
0 0 0 0 2.4664e-05 0
0.005 0 0 0 0 0
0.01 0 0 0 0 0
0.015 0 0 0 0 161.886
0.02 0 0 0 0 176.134
0.025 0 0 0 0 155.661
0.03 0 0 0 0 133.34
0.035 0 0 0 0 115.897
0.04 0 0 0 0 103.115
0.045 0 0 0 0 93.6399
0.05 0 0 0 0 86.3542
0.055 0 0 0 0 80.5212
0.06 0 0 0 0 75.6809
0.065 0 0 0 0 71.5446
0.07 0 0 0 0 67.9262
0.075 0 0 0 0 64.7014
0.08 0 0 0 0 61.7846
0.085 0 0 0 0 59.1154
0.09 0 0 0 0 56.65
0.095 0 0 0 0 54.3559
0.1 0 0 0 0 52.2091
0.105 0 0 0 0 50.1908
0.11 0 0 0 0 48.2865
0.115 0 0 0 0 46.4846
0.12 0 0 0 0 44.7759
0.125 0 0 0 0 43.1524
0.13 0 0 0 0 41.6076
0.135 0 0 0 0 40.1356
0.14 0 0 0 0 38.7315
0.145 0 0 0 0 37.3906
0.15 0 0 0 0 36.1088
0.155 0 0 0 0 34.8823
0.16 0 0 0 0 33.7074
0.165 0 0 0 0 32.5807
0.17 0 0 0 0 31.4992
0.175 0 0 0 0 30.4597
0.18 0 0 0 0 29.4594
0.185 0 0 0 0 28.4957
0.19 0 0 0 0 27.5658
0.195 0 0 0 0 26.6676
0.2 0 0 0 0 25.7985
0.205 0 0 0 0 24.9565
0.21 0 0 0 0 24.1395
0.215 0 0 0 0 23.3456
0.22 0 0 0 0 22.5731
0.225 0 0 0 0 21.8204
0.23 0 0 0 0 21.0858
0.235 0 0 0 0 20.3682
0.24 0 0 0 0 19.6662
0.245 0 0 0 0 18.9788
0.25 0 0 0 0 18.3048
0.255 0 0 0 0 17.6436
0.26 0 0 0 0 16.9943
0.265 0 0 0 0 16.3564
0.27 0 0 0 0 15.7294
0.275 0 0 0 0 15.1127
0.28 0 0 0 0 14.5063
0.285 0 0 0 0 13.9098
0.29 0 0 0 0 13.3233
0.295 0 0 0 0 12.7466
0.3 0 0 0 0 12.1799
0.305 0 0 0 0 11.6234
0.31 0 0 0 0 11.0772
0.315 0 0 0 0 10.5416
0.32 0 0 0 0 10.0169
0.325 0 0 0 0 9.50359
0.33 0 0 0 0 9.00191
0.335 0 0 0 0 8.51232
0.34 0 0 0 0 8.03522
0.345 0 0 0 0 7.57104
0.35 0 0 0 0 7.12018
0.355 0 0 0 0 6.68303
0.36 0 0 0 0 6.25996
0.365 0 0 0 0 5.8513
0.37 0 0 0 0 5.45737
0.375 0 0 0 0 5.0784
0.38 0 0 0 0 4.71461
0.385 0 0 0 0 4.36616
0.39 0 0 0 0 4.03314
0.395 0 0 0 0 3.7156
0.4 0 0 0 0 3.41352
0.405 0 0 0 0 3.12683
0.41 0 0 0 0 2.8554
0.415 0 0 0 0 2.59905
0.42 0 0 0 0 2.35754
0.425 0 0 0 0 2.13057
0.43 0 0 0 0 1.91783
0.435 0 0 0 0 1.71893
0.44 0 0 0 0 1.53345
0.445 0 0 0 0 1.36096
0.45 0 0 0 0 1.20098
0.455 0 0 0 0 1.05301
0.46 0 0 0 0 0.916529
0.465 0 0 0 0 0.791017
0.47 0 0 0 0 0.675927
0.475 0 0 0 0 0.570711
0.48 0 0 0 0 0.474819
0.485 0 0 0 0 0.387699
0.49 0 0 0 0 0.308803
0.495 0 0 0 0 0.237587
0.5 0 0 0 0 0.17352
0.505 0 0 0 0 0.116078
0.51 0 0 0 0 0.0647541
0.515 0 0 0 0 0.0190561
0.52 0 0 0 0 -0.0214875
0.525 0 0 0 0 -0.057327
0.53 0 0 0 0 -0.0888887
0.535 0 0 0 0 -0.116573
0.54 0 0 0 0 -0.140752
0.545 0 0 0 0 -0.16177
0.55 0 0 0 0 -0.179941
0.555 0 0 0 0 -0.195551
0.56 0 0 0 0 -0.208855
0.565 0 0 0 0 -0.220081
0.57 0 0 0 0 -0.229431
0.575 0 0 0 0 -0.23708
0.58 0 0 0 0 -0.243183
0.585 0 0 0 0 -0.247873
0.59 0 0 0 0 -0.251267
0.595 0 0 0 0 -0.253465
0.6 0 0 0 0 -0.254556
0.605 0 0 0 0 -0.254621
0.61 0 0 0 0 -0.253729
0.615 0 0 0 0 -0.251949
0.62 0 0 0 0 -0.249341
0.625 0 0 0 0 -0.245966
0.63 0 0 0 0 -0.241882
0.635 0 0 0 0 -0.237148
0.64 0 0 0 0 -0.231822
0.645 0 0 0 0 -0.225962
0.65 0 0 0 0 -0.219627
0.655 0 0 0 0 -0.212876
0.66 0 0 0 0 -0.205769
0.665 0 0 0 0 -0.198365
0.67 0 0 0 0 -0.190721
0.675 0 0 0 0 -0.182895
0.68 0 0 0 0 -0.174942
0.685 0 0 0 0 -0.166914
0.69 0 0 0 0 -0.158862
0.695 0 0 0 0 -0.150833
0.7 0 0 0 0 -0.142872
0.705 0 0 0 0 -0.135018
0.71 0 0 0 0 -0.127309
0.715 0 0 0 0 -0.119778
0.72 0 0 0 0 -0.112453
0.725 0 0 0 0 -0.105361
0.73 0 0 0 0 -0.0985227
0.735 0 0 0 0 -0.0919565
0.74 0 0 0 0 -0.0856771
0.745 0 0 0 0 -0.0796961
0.75 0 0 0 0 -0.0740221
0.755 0 0 0 0 -0.0686608
0.76 0 0 0 0 -0.0636157
0.765 0 0 0 0 -0.0588879
0.77 0 0 0 0 -0.0544765
0.775 0 0 0 0 -0.0503788
0.78 0 0 0 0 -0.0465908
0.785 0 0 0 0 -0.0431067
0.79 0 0 0 0 -0.03992
0.795 0 0 0 0 -0.0370229
0.8 0 0 0 0 -0.0344068
0.805 0 0 0 0 -0.0320622
0.81 0 0 0 0 -0.0299792
0.815 0 0 0 0 -0.0281472
0.82 0 0 0 0 -0.0265549
0.825 0 0 0 0 -0.0251906
0.83 0 0 0 0 -0.0240422
0.835 0 0 0 0 -0.0230969
0.84 0 0 0 0 -0.0223417
0.845 0 0 0 0 -0.0217628
0.85 0 0 0 0 -0.0213459
0.855 0 0 0 0 -0.0210762
0.86 0 0 0 0 -0.0209382
0.865 0 0 0 0 -0.0209156
0.87 0 0 0 0 -0.0209915
0.875 0 0 0 0 -0.0211482
0.88 0 0 0 0 -0.0213673
0.885 0 0 0 0 -0.0216294
0.89 0 0 0 0 -0.0219144
0.895 0 0 0 0 -0.0222013
0.9 0 0 0 0 -0.0224686
0.905 0 0 0 0 -0.0226941
0.91 0 0 0 0 -0.0228549
0.915 0 0 0 0 -0.0229282
0.92 0 0 0 0 -0.0228908
0.925 0 0 0 0 -0.0227203
0.93 0 0 0 0 -0.0223947
0.935 0 0 0 0 -0.0218937
0.94 0 0 0 0 -0.021199
0.945 0 0 0 0 -0.0202953
0.95 0 0 0 0 -0.0191714
0.955 0 0 0 0 -0.0178219
0.96 0 0 0 0 -0.0162484
0.965 0 0 0 0 -0.0144623
0.97 0 0 0 0 -0.0124871
0.975 0 0 0 0 -0.0103623
0.98 0 0 0 0 -0.00814806
0.985 0 0 0 0 -0.00593063
0.99 0 0 0 0 -0.00382975
0.995 0 0 0 0 -0.00200492
1 0 0 0 0 -0.00065389
0 0.005 0 0 0 0
0.005 0.005 0 0 0 0
0.01 0.005 0 0 0 73.7207
0.015 0.005 0 0 0 61.9566
0.02 0.005 0 0 0 45.4754
0.025 0.005 0 0 0 33.6407
0.03 0.005 0 0 0 25.7771
0.035 0.005 0 0 0 20.4754
0.04 0.005 0 0 0 16.7669
0.045 0.005 0 0 0 14.071
0.05 0.005 0 0 0 12.0438
0.055 0.005 0 0 0 10.476
0.06 0.005 0 0 0 9.23491
0.065 0.005 0 0 0 8.23356
0.07 0.005 0 0 0 7.41256
0.075 0.005 0 0 0 6.73018
0.08 0.005 0 0 0 6.15633
0.085 0.005 0 0 0 5.6688
0.09 0.005 0 0 0 5.25089
0.095 0.005 0 0 0 4.88982
0.1 0.005 0 0 0 4.57566
0.105 0.005 0 0 0 4.30061
0.11 0.005 0 0 0 4.05843
0.115 0.005 0 0 0 3.84411
0.12 0.005 0 0 0 3.65359
0.125 0.005 0 0 0 3.48352
0.13 0.005 0 0 0 3.33113
0.135 0.005 0 0 0 3.19412
0.14 0.005 0 0 0 3.07054
0.145 0.005 0 0 0 2.95877
0.15 0.005 0 0 0 2.8574
0.155 0.005 0 0 0 2.76525
0.16 0.005 0 0 0 2.68127
0.165 0.005 0 0 0 2.6046
0.17 0.005 0 0 0 2.53445
0.175 0.005 0 0 0 2.47015
0.18 0.005 0 0 0 2.41111
0.185 0.005 0 0 0 2.35681
0.19 0.005 0 0 0 2.30678
0.195 0.005 0 0 0 2.26061
0.2 0.005 0 0 0 2.21795
0.205 0.005 0 0 0 2.17847
0.21 0.005 0 0 0 2.14186
0.215 0.005 0 0 0 2.10788
0.22 0.005 0 0 0 2.07627
0.225 0.005 0 0 0 2.04684
0.23 0.005 0 0 0 2.01938
0.235 0.005 0 0 0 1.99372
0.24 0.005 0 0 0 1.96969
0.245 0.005 0 0 0 1.94714
0.25 0.005 0 0 0 1.92596
0.255 0.005 0 0 0 1.906
0.26 0.005 0 0 0 1.88715
0.265 0.005 0 0 0 1.86932
0.27 0.005 0 0 0 1.8524
0.275 0.005 0 0 0 1.83631
0.28 0.005 0 0 0 1.82096
0.285 0.005 0 0 0 1.80628
0.29 0.005 0 0 0 1.7922
0.295 0.005 0 0 0 1.77865
0.3 0.005 0 0 0 1.76557
0.305 0.005 0 0 0 1.75291
0.31 0.005 0 0 0 1.74061
0.315 0.005 0 0 0 1.72863
0.32 0.005 0 0 0 1.71692
0.325 0.005 0 0 0 1.70543
0.33 0.005 0 0 0 1.69414
0.335 0.005 0 0 0 1.68299
0.34 0.005 0 0 0 1.67197
0.345 0.005 0 0 0 1.66104
0.35 0.005 0 0 0 1.65017
0.355 0.005 0 0 0 1.63934
0.36 0.005 0 0 0 1.62851
0.365 0.005 0 0 0 1.61768
0.37 0.005 0 0 0 1.60681
0.375 0.005 0 0 0 1.59589
0.38 0.005 0 0 0 1.5849
0.385 0.005 0 0 0 1.57383
0.39 0.005 0 0 0 1.56266
0.395 0.005 0 0 0 1.55137
0.4 0.005 0 0 0 1.53997
0.405 0.005 0 0 0 1.52843
0.41 0.005 0 0 0 1.51675
0.415 0.005 0 0 0 1.50493
0.42 0.005 0 0 0 1.49294
0.425 0.005 0 0 0 1.4808
0.43 0.005 0 0 0 1.46849
0.435 0.005 0 0 0 1.456
0.44 0.005 0 0 0 1.44335
0.445 0.005 0 0 0 1.43052
0.45 0.005 0 0 0 1.41752
0.455 0.005 0 0 0 1.40434
0.46 0.005 0 0 0 1.39098
0.465 0.005 0 0 0 1.37745
0.47 0.005 0 0 0 1.36374
0.475 0.005 0 0 0 1.34986
0.48 0.005 0 0 0 1.33582
0.485 0.005 0 0 0 1.32161
0.49 0.005 0 0 0 1.30723
0.495 0.005 0 0 0 1.2927
0.5 0.005 0 0 0 1.27802
0.505 0.005 0 0 0 1.26319
0.51 0.005 0 0 0 1.24821
0.515 0.005 0 0 0 1.2331
0.52 0.005 0 0 0 1.21785
0.525 0.005 0 0 0 1.20248
0.53 0.005 0 0 0 1.18699
0.535 0.005 0 0 0 1.17139
0.54 0.005 0 0 0 1.15568
0.545 0.005 0 0 0 1.13986
0.55 0.005 0 0 0 1.12396
0.555 0.005 0 0 0 1.10797
0.56 0.005 0 0 0 1.09189
0.565 0.005 0 0 0 1.07575
0.57 0.005 0 0 0 1.05954
0.575 0.005 0 0 0 1.04326
0.58 0.005 0 0 0 1.02694
0.585 0.005 0 0 0 1.01057
0.59 0.005 0 0 0 0.99416
0.595 0.005 0 0 0 0.977718
0.6 0.005 0 0 0 0.96125
0.605 0.005 0 0 0 0.944761
0.61 0.005 0 0 0 0.928259
0.615 0.005 0 0 0 0.911749
0.62 0.005 0 0 0 0.895237
0.625 0.005 0 0 0 0.87873
0.63 0.005 0 0 0 0.862231
0.635 0.005 0 0 0 0.845748
0.64 0.005 0 0 0 0.829286
0.645 0.005 0 0 0 0.812848
0.65 0.005 0 0 0 0.796441
0.655 0.005 0 0 0 0.780068
0.66 0.005 0 0 0 0.763736
0.665 0.005 0 0 0 0.747446
0.67 0.005 0 0 0 0.731205
0.675 0.005 0 0 0 0.715016
0.68 0.005 0 0 0 0.698882
0.685 0.005 0 0 0 0.682807
0.69 0.005 0 0 0 0.666795
0.695 0.005 0 0 0 0.65085
0.7 0.005 0 0 0 0.634973
0.705 0.005 0 0 0 0.619168
0.71 0.005 0 0 0 0.603439
0.715 0.005 0 0 0 0.587788
0.72 0.005 0 0 0 0.572217
0.725 0.005 0 0 0 0.556729
0.73 0.005 0 0 0 0.541327
0.735 0.005 0 0 0 0.526014
0.74 0.005 0 0 0 0.51079
0.745 0.005 0 0 0 0.495661
0.75 0.005 0 0 0 0.480626
0.755 0.005 0 0 0 0.46569
0.76 0.005 0 0 0 0.450854
0.765 0.005 0 0 0 0.436122
0.77 0.005 0 0 0 0.421495
0.775 0.005 0 0 0 0.406977
0.78 0.005 0 0 0 0.39257
0.785 0.005 0 0 0 0.378278
0.79 0.005 0 0 0 0.364104
0.795 0.005 0 0 0 0.350052
0.8 0.005 0 0 0 0.336125
0.805 0.005 0 0 0 0.322327
0.81 0.005 0 0 0 0.308664
0.815 0.005 0 0 0 0.295139
0.82 0.005 0 0 0 0.281757
0.825 0.005 0 0 0 0.268525
0.83 0.005 0 0 0 0.255448
0.835 0.005 0 0 0 0.242533
0.84 0.005 0 0 0 0.229787
0.845 0.005 0 0 0 0.217218
0.85 0.005 0 0 0 0.204832
0.855 0.005 0 0 0 0.192641
0.86 0.005 0 0 0 0.180653
0.865 0.005 0 0 0 0.168878
0.87 0.005 0 0 0 0.157328
0.875 0.005 0 0 0 0.146015
0.88 0.005 0 0 0 0.134952
0.885 0.005 0 0 0 0.124153
0.89 0.005 0 0 0 0.113633
0.895 0.005 0 0 0 0.103408
0.9 0.005 0 0 0 0.0934963
0.905 0.005 0 0 0 0.0839165
0.91 0.005 0 0 0 0.0746891
0.915 0.005 0 0 0 0.065836
0.92 0.005 0 0 0 0.0573809
0.925 0.005 0 0 0 0.0493493
0.93 0.005 0 0 0 0.0417684
0.935 0.005 0 0 0 0.0346676
0.94 0.005 0 0 0 0.0280783
0.945 0.005 0 0 0 0.0220338
0.95 0.005 0 0 0 0.0165694
0.955 0.005 0 0 0 0.011722
0.96 0.005 0 0 0 0.00752945
0.965 0.005 0 0 0 0.00402925
0.97 0.005 0 0 0 0.00125658
0.975 0.005 0 0 0 -0.000759718
0.98 0.005 0 0 0 -0.00200425
0.985 0.005 0 0 0 -0.00248826
0.99 0.005 0 0 0 -0.00227424
0.995 0.005 0 0 0 -0.00152156
1 0.005 0 0 0 -0.000563963
0 0.01 0 0 -0.000563963 0
0.005 0.01 0 0 0 -326.279
0.01 0.01 -0.179923 0.0774458 -0.000921509 -44.4938
0.015 0.01 -0.18438 -0.0353067 -0.000774458 9.43692
0.02 0.01 -0.155532 -0.0353949 -0.000568443 19.0606
0.025 0.01 -0.12658 -0.0246229 -0.000420509 18.9767
0.03 0.01 -0.103415 -0.0164567 -0.000322214 16.8696
0.035 0.01 -0.0857611 -0.0112628 -0.000255942 14.6256
0.04 0.01 -0.0723368 -0.00800548 -0.000209586 12.6742
0.045 0.01 -0.0619973 -0.00590377 -0.000175888 11.0623
0.05 0.01 -0.053898 -0.0044938 -0.000150548 9.74501
0.055 0.01 -0.0474444 -0.00351116 -0.000130949 8.66523
0.06 0.01 -0.0422205 -0.00280299 -0.000115436 7.77316
0.065 0.01 -0.0379319 -0.00227793 -0.000102919 7.02936
0.07 0.01 -0.0343667 -0.00187922 -9.26569e-05 6.40342
0.075 0.01 -0.0313698 -0.00157028 -8.41271e-05 5.87203
0.08 0.01 -0.028826 -0.00132671 -7.6954e-05 5.41722
0.085 0.01 -0.0266476 -0.00113178 -7.08599e-05 5.02505
0.09 0.01 -0.0247676 -0.000973712 -6.56361e-05 4.68458
0.095 0.01 -0.0231338 -0.000844024 -6.11227e-05 4.38716
0.1 0.01 -0.0217049 -0.00073651 -5.71957e-05 4.12587
0.105 0.01 -0.0204482 -0.000646539 -5.37575e-05 3.89512
0.11 0.01 -0.0193372 -0.000570609 -5.07302e-05 3.6904
0.115 0.01 -0.0183505 -0.000506035 -4.80513e-05 3.50798
0.12 0.01 -0.0174704 -0.000450733 -4.56698e-05 3.3448
0.125 0.01 -0.0166824 -0.000403068 -4.35439e-05 3.19829
0.13 0.01 -0.0159744 -0.000361745 -4.16391e-05 3.06631
0.135 0.01 -0.0153361 -0.000325728 -3.99264e-05 2.94706
0.14 0.01 -0.0147591 -0.000294181 -3.83818e-05 2.83901
0.145 0.01 -0.014236 -0.000266424 -3.69846e-05 2.74085
0.15 0.01 -0.0137606 -0.000241902 -3.57175e-05 2.65146
0.155 0.01 -0.0133276 -0.000220155 -3.45655e-05 2.56987
0.16 0.01 -0.0129322 -0.000200803 -3.35159e-05 2.49525
0.165 0.01 -0.0125705 -0.000183527 -3.25575e-05 2.42686
0.17 0.01 -0.012239 -0.00016806 -3.16807e-05 2.36406
0.175 0.01 -0.0119346 -0.000154176 -3.08769e-05 2.3063
0.18 0.01 -0.0116546 -0.000141684 -3.01389e-05 2.25308
0.185 0.01 -0.0113966 -0.00013042 -2.94601e-05 2.20396
0.19 0.01 -0.0111585 -0.000120244 -2.88348e-05 2.15855
0.195 0.01 -0.0109385 -0.000111036 -2.82577e-05 2.11652
0.2 0.01 -0.0107348 -0.000102692 -2.77245e-05 2.07754
0.205 0.01 -0.0105459 -9.51201e-05 -2.72309e-05 2.04134
0.21 0.01 -0.0103706 -8.82428e-05 -2.67733e-05 2.00767
0.215 0.01 -0.0102075 -8.19907e-05 -2.63485e-05 1.97631
0.22 0.01 -0.0100556 -7.63035e-05 -2.59535e-05 1.94704
0.225 0.01 -0.00991387 -7.11278e-05 -2.55856e-05 1.91969
0.23 0.01 -0.00978142 -6.64167e-05 -2.52424e-05 1.89408
0.235 0.01 -0.00965742 -6.21284e-05 -2.49216e-05 1.87007
0.24 0.01 -0.00954113 -5.82257e-05 -2.46212e-05 1.8475
0.245 0.01 -0.00943184 -5.46758e-05 -2.43394e-05 1.82626
0.25 0.01 -0.00932893 -5.14488e-05 -2.40746e-05 1.80623
0.255 0.01 -0.00923183 -4.85183e-05 -2.38251e-05 1.78729
0.26 0.01 -0.00914 -4.58604e-05 -2.35896e-05 1.76935
0.265 0.01 -0.00905295 -4.34535e-05 -2.33667e-05 1.75231
0.27 0.01 -0.00897023 -4.12781e-05 -2.31552e-05 1.7361
0.275 0.01 -0.00889143 -3.93165e-05 -2.29541e-05 1.72062
0.28 0.01 -0.00881615 -3.75525e-05 -2.27622e-05 1.70582
0.285 0.01 -0.00874404 -3.59714e-05 -2.25787e-05 1.69162
0.29 0.01 -0.00867477 -3.45598e-05 -2.24027e-05 1.67796
0.295 0.01 -0.00860803 -3.33053e-05 -2.22334e-05 1.66479
0.3 0.01 -0.00854354 -3.21965e-05 -2.20699e-05 1.65204
0.305 0.01 -0.00848103 -3.12231e-05 -2.19116e-05 1.63967
0.31 0.01 -0.00842026 -3.03752e-05 -2.17579e-05 1.62764
0.315 0.01 -0.008361 -2.96441e-05 -2.16081e-05 1.6159
0.32 0.01 -0.00830305 -2.90212e-05 -2.14617e-05 1.60441
0.325 0.01 -0.00824619 -2.84988e-05 -2.13181e-05 1.59313
0.33 0.01 -0.00819025 -2.80698e-05 -2.1177e-05 1.58203
0.335 0.01 -0.00813506 -2.77274e-05 -2.10377e-05 1.57108
0.34 0.01 -0.00808047 -2.74651e-05 -2.08999e-05 1.56025
0.345 0.01 -0.00802632 -2.7277e-05 -2.07633e-05 1.5495
0.35 0.01 -0.00797249 -2.71577e-05 -2.06275e-05 1.53883
0.355 0.01 -0.00791884 -2.71016e-05 -2.0492e-05 1.52819
0.36 0.01 -0.00786527 -2.7104e-05 -2.03567e-05 1.51757
0.365 0.01 -0.00781167 -2.716e-05 -2.02213e-05 1.50696
0.37 0.01 -0.00775794 -2.72652e-05 -2.00854e-05 1.49633
0.375 0.01 -0.00770399 -2.74154e-05 -1.99489e-05 1.48566
0.38 0.01 -0.00764974 -2.76066e-05 -1.98116e-05 1.47494
0.385 0.01 -0.00759512 -2.7835e-05 -1.96731e-05 1.46416
0.39 0.01 -0.00754007 -2.8097e-05 -1.95335e-05 1.4533
0.395 0.01 -0.00748451 -2.83891e-05 -1.93925e-05 1.44236
0.4 0.01 -0.0074284 -2.87081e-05 -1.92499e-05 1.43131
0.405 0.01 -0.0073717 -2.90509e-05 -1.91057e-05 1.42016
0.41 0.01 -0.00731435 -2.94144e-05 -1.89597e-05 1.4089
0.415 0.01 -0.00725632 -2.97961e-05 -1.88119e-05 1.39751
0.42 0.01 -0.00719758 -3.0193e-05 -1.86621e-05 1.386
0.425 0.01 -0.00713811 -3.06028e-05 -1.85103e-05 1.37435
0.43 0.01 -0.00707788 -3.1023e-05 -1.83564e-05 1.36257
0.435 0.01 -0.00701687 -3.14513e-05 -1.82004e-05 1.35064
0.44 0.01 -0.00695507 -3.18857e-05 -1.80422e-05 1.33858
0.445 0.01 -0.00689247 -3.23239e-05 -1.78818e-05 1.32637
0.45 0.01 -0.00682907 -3.27642e-05 -1.77193e-05 1.31401
0.455 0.01 -0.00676486 -3.32046e-05 -1.75545e-05 1.30151
0.46 0.01 -0.00669985 -3.36435e-05 -1.73876e-05 1.28886
0.465 0.01 -0.00663404 -3.40792e-05 -1.72184e-05 1.27607
0.47 0.01 -0.00656743 -3.45103e-05 -1.70471e-05 1.26313
0.475 0.01 -0.00650003 -3.49354e-05 -1.68736e-05 1.25005
0.48 0.01 -0.00643187 -3.5353e-05 -1.66981e-05 1.23683
0.485 0.01 -0.00636294 -3.57621e-05 -1.65204e-05 1.22347
0.49 0.01 -0.00629328 -3.61614e-05 -1.63407e-05 1.20998
0.495 0.01 -0.0062229 -3.655e-05 -1.61591e-05 1.19636
0.5 0.01 -0.00615181 -3.69268e-05 -1.59756e-05 1.18262
0.505 0.01 -0.00608005 -3.72912e-05 -1.57902e-05 1.16875
0.51 0.01 -0.00600763 -3.76421e-05 -1.5603e-05 1.15476
0.515 0.01 -0.00593459 -3.7979e-05 -1.5414e-05 1.14066
0.52 0.01 -0.00586094 -3.83012e-05 -1.52235e-05 1.12645
0.525 0.01 -0.00578673 -3.86083e-05 -1.50313e-05 1.11213
0.53 0.01 -0.00571196 -3.88996e-05 -1.48377e-05 1.09772
0.535 0.01 -0.00563668 -3.91749e-05 -1.46426e-05 1.08322
0.54 0.01 -0.00556091 -3.94337e-05 -1.44462e-05 1.06863
0.545 0.01 -0.00548469 -3.96759e-05 -1.42486e-05 1.05395
0.55 0.01 -0.00540805 -3.99012e-05 -1.40498e-05 1.03921
0.555 0.01 -0.00533101 -4.01094e-05 -1.38498e-05 1.02439
0.56 0.01 -0.00525362 -4.03006e-05 -1.36489e-05 1.0095
0.565 0.01 -0.00517589 -4.04746e-05 -1.34471e-05 0.994563
0.57 0.01 -0.00509787 -4.06316e-05 -1.32445e-05 0.97957
0.575 0.01 -0.00501958 -4.07715e-05 -1.30411e-05 0.96453
0.58 0.01 -0.00494106 -4.08945e-05 -1.2837e-05 0.949449
0.585 0.01 -0.00486234 -4.10007e-05 -1.26324e-05 0.934334
0.59 0.01 -0.00478344 -4.10905e-05 -1.24273e-05 0.919189
0.595 0.01 -0.00470441 -4.11639e-05 -1.22217e-05 0.90402
0.6 0.01 -0.00462526 -4.12213e-05 -1.20159e-05 0.888833
0.605 0.01 -0.00454603 -4.1263e-05 -1.18098e-05 0.873634
0.61 0.01 -0.00446675 -4.12893e-05 -1.16035e-05 0.858427
0.615 0.01 -0.00438745 -4.13007e-05 -1.13971e-05 0.843218
0.62 0.01 -0.00430814 -4.12974e-05 -1.11907e-05 0.828012
0.625 0.01 -0.00422887 -4.12799e-05 -1.09843e-05 0.812813
0.63 0.01 -0.00414965 -4.12487e-05 -1.07781e-05 0.797627
0.635 0.01 -0.00407052 -4.12041e-05 -1.05721e-05 0.782459
0.64 0.01 -0.00399148 -4.11466e-05 -1.03663e-05 0.767312
0.645 0.01 -0.00391258 -4.10767e-05 -1.01608e-05 0.752191
0.65 0.01 -0.00383383 -4.09948e-05 -9.95571e-06 0.7371
0.655 0.01 -0.00375525 -4.09014e-05 -9.75105e-06 0.722044
0.66 0.01 -0.00367687 -4.0797e-05 -9.54688e-06 0.707026
0.665 0.01 -0.0035987 -4.0682e-05 -9.34326e-06 0.69205
0.67 0.01 -0.00352076 -4.05568e-05 -9.14024e-06 0.677119
0.675 0.01 -0.00344308 -4.0422e-05 -8.93787e-06 0.662237
0.68 0.01 -0.00336567 -4.02778e-05 -8.73619e-06 0.647407
0.685 0.01 -0.00328854 -4.01249e-05 -8.53525e-06 0.632632
0.69 0.01 -0.00321171 -3.99635e-05 -8.3351e-06 0.617916
0.695 0.01 -0.00313521 -3.9794e-05 -8.13577e-06 0.603261
0.7 0.01 -0.00305903 -3.96168e-05 -7.93731e-06 0.588669
0.705 0.01 -0.0029832 -3.94322e-05 -7.73975e-06 0.574144
0.71 0.01 -0.00290774 -3.92404e-05 -7.54313e-06 0.559688
0.715 0.01 -0.00283264 -3.90419e-05 -7.34748e-06 0.545304
0.72 0.01 -0.00275794 -3.88367e-05 -7.15284e-06 0.530994
0.725 0.01 -0.00268363 -3.8625e-05 -6.95924e-06 0.51676
0.73 0.01 -0.00260973 -3.84071e-05 -6.76671e-06 0.502604
0.735 0.01 -0.00253625 -3.8183e-05 -6.57529e-06 0.488529
0.74 0.01 -0.00246321 -3.79528e-05 -6.38499e-06 0.474537
0.745 0.01 -0.00239062 -3.77165e-05 -6.19586e-06 0.46063
0.75 0.01 -0.00231848 -3.74741e-05 -6.00793e-06 0.44681
0.755 0.01 -0.00224681 -3.72254e-05 -5.82122e-06 0.43308
0.76 0.01 -0.00217562 -3.69703e-05 -5.63577e-06 0.419442
0.765 0.01 -0.00210493 -3.67087e-05 -5.45161e-06 0.405898
0.77 0.01 -0.00203474 -3.64402e-05 -5.26877e-06 0.392452
0.775 0.01 -0.00196507 -3.61645e-05 -5.08729e-06 0.379104
0.78 0.01 -0.00189594 -3.58812e-05 -4.9072e-06 0.365859
0.785 0.01 -0.00182735 -3.55899e-05 -4.72855e-06 0.35272
0.79 0.01 -0.00175934 -3.52901e-05 -4.55137e-06 0.339688
0.795 0.01 -0.0016919 -3.4981e-05 -4.37572e-06 0.326768
0.8 0.01 -0.00162507 -3.46622e-05 -4.20162e-06 0.313964
0.805 0.01 -0.00155885 -3.43327e-05 -4.02915e-06 0.301278
0.81 0.01 -0.00149328 -3.39918e-05 -3.85835e-06 0.288716
0.815 0.01 -0.00142837 -3.36386e-05 -3.68928e-06 0.276281
0.82 0.01 -0.00136416 -3.32719e-05 -3.52201e-06 0.263979
0.825 0.01 -0.00130066 -3.28909e-05 -3.35661e-06 0.251815
0.83 0.01 -0.00123791 -3.24942e-05 -3.19315e-06 0.239794
0.835 0.01 -0.00117593 -3.20806e-05 -3.03171e-06 0.227923
0.84 0.01 -0.00111477 -3.16486e-05 -2.87238e-06 0.216208
0.845 0.01 -0.00105446 -3.11969e-05 -2.71525e-06 0.204656
0.85 0.01 -0.00099503 -3.07238e-05 -2.56044e-06 0.193275
0.855 0.01 -0.000936536 -3.02275e-05 -2.40804e-06 0.182074
0.86 0.01 -0.000879019 -2.97063e-05 -2.25818e-06 0.171061
0.865 0.01 -0.00082253 -2.91581e-05 -2.111e-06 0.160246
0.87 0.01 -0.000767122 -2.85808e-05 -1.96662e-06 0.149639
0.875 0.01 -0.000712854 -2.79721e-05 -1.82521e-06 0.139251
0.88 0.01 -0.000659789 -2.73296e-05 -1.68691e-06 0.129095
0.885 0.01 -0.000607992 -2.66506e-05 -1.55192e-06 0.119183
0.89 0.01 -0.000557537 -2.59323e-05 -1.42042e-06 0.10953
0.895 0.01 -0.000508502 -2.51716e-05 -1.29261e-06 0.100149
0.9 0.01 -0.000460969 -2.43652e-05 -1.16871e-06 0.0910573
0.905 0.01 -0.000415029 -2.35097e-05 -1.04896e-06 0.0822713
0.91 0.01 -0.000370778 -2.26012e-05 -9.33618e-07 0.0738093
0.915 0.01 -0.000328319 -2.16357e-05 -8.22954e-07 0.0656904
0.92 0.01 -0.000287761 -2.06088e-05 -7.17264e-07 0.0579354
0.925 0.01 -0.000249224 -1.95159e-05 -6.16867e-07 0.0505659
0.93 0.01 -0.000212833 -1.83522e-05 -5.22105e-07 0.043605
0.935 0.01 -0.000178721 -1.71127e-05 -4.33344e-07 0.0370768
0.94 0.01 -0.00014703 -1.57922e-05 -3.50977e-07 0.0310065
0.945 0.01 -0.000117909 -1.4386e-05 -2.75421e-07 0.0254199
0.95 0.01 -9.15097e-05 -1.28895e-05 -2.07116e-07 0.0203432
0.955 0.01 -6.79911e-05 -1.12998e-05 -1.46523e-07 0.015802
0.96 0.01 -4.75088e-05 -9.61577e-06 -9.41159e-08 0.0118205
0.965 0.01 -3.02112e-05 -7.84087e-06 -5.03634e-08 0.00841918
0.97 0.01 -1.6227e-05 -5.98599e-06 -1.57052e-08 0.00561256
0.975 0.01 -5.64643e-06 -4.07584e-06 9.49821e-09 0.00340429
0.98 0.01 1.51016e-06 -2.16051e-06 2.50546e-08 0.00178054
0.985 0.01 5.34406e-06 -3.37343e-07 3.11043e-08 0.000699705
0.99 0.01 6.16309e-06 1.20847e-06 2.84286e-08 7.83536e-05
0.995 0.01 4.61715e-06 2.13791e-06 1.90198e-08 -0.000222838
1 0.01 1.89972e-06 1.90198e-06 7.04958e-09 -0.000392762
0 0.015 0 0 -0.00151978 0
0.005 0.015 0 0 0 -256.061
0.01 0.015 -0.152579 0.18438 -0.00179923 -79.3729
0.015 0.015 -0.205522 -0.0243914 -0.0018438 -16.6607
0.02 0.015 -0.203562 -0.0578005 -0.00155532 2.43297
0.025 0.015 -0.183636 -0.0521174 -0.0012658 8.14601
0.03 0.015 -0.160708 -0.0408187 -0.00103415 9.5335
0.035 0.015 -0.139732 -0.0310778 -0.000857611 9.45096
0.04 0.015 -0.12188 -0.0237637 -0.000723368 8.88337
0.045 0.015 -0.107054 -0.0184388 -0.000619973 8.19098
0.05 0.015 -0.0948085 -0.0145529 -0.00053898 7.50717
0.055 0.015 -0.0846651 -0.0116775 -0.000474444 6.87836
0.06 0.015 -0.0762103 -0.00951254 -0.000422205 6.31674
0.065 0.015 -0.0691093 -0.00785385 -0.000379318 5.8212
0.07 0.015 -0.063098 -0.00656199 -0.000343666 5.38584
0.075 0.015 -0.05797 -0.00554066 -0.000313698 5.00349
0.08 0.015 -0.0535634 -0.00472221 -0.000288259 4.66714
0.085 0.015 -0.0497509 -0.00405829 -0.000266476 4.37046
0.09 0.015 -0.0464317 -0.00351376 -0.000247676 4.10794
0.095 0.015 -0.0435251 -0.00306266 -0.000231338 3.87484
0.1 0.015 -0.0409664 -0.00268555 -0.000217049 3.66716
0.105 0.015 -0.0387029 -0.00236768 -0.000204482 3.48149
0.11 0.015 -0.0366915 -0.0020977 -0.000193372 3.31496
0.115 0.015 -0.0348968 -0.0018668 -0.000183505 3.16514
0.12 0.015 -0.0332895 -0.00166806 -0.000174704 3.02993
0.125 0.015 -0.0318449 -0.001496 -0.000166824 2.90758
0.13 0.015 -0.0305425 -0.00134623 -0.000159744 2.79658
0.135 0.015 -0.0293648 -0.00121522 -0.000153361 2.69561
0.14 0.015 -0.0282969 -0.00110009 -0.000147591 2.60356
0.145 0.015 -0.0273261 -0.000998483 -0.00014236 2.51946
0.15 0.015 -0.0264416 -0.000908472 -0.000137606 2.44246
0.155 0.015 -0.0256339 -0.000828448 -0.000133276 2.37182
0.16 0.015 -0.0248947 -0.00075707 -0.000129322 2.3069
0.165 0.015 -0.0242171 -0.000693214 -0.000125705 2.24713
0.17 0.015 -0.0235947 -0.000635931 -0.00012239 2.19201
0.175 0.015 -0.0230221 -0.000584418 -0.000119346 2.14109
0.18 0.015 -0.0224943 -0.00053799 -0.000116546 2.09397
0.185 0.015 -0.022007 -0.000496061 -0.000113966 2.05031
0.19 0.015 -0.0215566 -0.000458127 -0.000111585 2.00979
0.195 0.015 -0.0211394 -0.000423754 -0.000109385 1.97213
0.2 0.015 -0.0207526 -0.000392563 -0.000107348 1.93708
0.205 0.015 -0.0203932 -0.000364227 -0.000105459 1.9044
0.21 0.015 -0.020059 -0.00033846 -0.000103706 1.87389
0.215 0.015 -0.0197476 -0.00031501 -0.000102075 1.84535
0.22 0.015 -0.019457 -0.000293657 -0.000100556 1.81863
0.225 0.015 -0.0191853 -0.000274206 -9.91391e-05 1.79356
0.23 0.015 -0.018931 -0.000256484 -9.78146e-05 1.77
0.235 0.015 -0.0186925 -0.000240338 -9.65747e-05 1.74782
0.24 0.015 -0.0184684 -0.000225632 -9.54118e-05 1.7269
0.245 0.015 -0.0182574 -0.000212243 -9.43189e-05 1.70714
0.25 0.015 -0.0180584 -0.000200062 -9.32899e-05 1.68843
0.255 0.015 -0.0178702 -0.000188991 -9.23189e-05 1.67068
0.26 0.015 -0.017692 -0.000178941 -9.14007e-05 1.6538
0.265 0.015 -0.0175227 -0.000169832 -9.05302e-05 1.63772
0.27 0.015 -0.0173616 -0.000161593 -8.9703e-05 1.62236
0.275 0.015 -0.0172078 -0.000154156 -8.8915e-05 1.60765
0.28 0.015 -0.0170607 -0.000147462 -8.81622e-05 1.59354
0.285 0.015 -0.0169196 -0.000141455 -8.74411e-05 1.57996
0.29 0.015 -0.0167838 -0.000136086 -8.67485e-05 1.56686
0.295 0.015 -0.0166528 -0.000131309 -8.60811e-05 1.55419
0.3 0.015 -0.0165261 -0.00012708 -8.54362e-05 1.5419
0.305 0.015 -0.0164031 -0.000123361 -8.48112e-05 1.52995
0.31 0.015 -0.0162834 -0.000120115 -8.42035e-05 1.51831
0.315 0.015 -0.0161666 -0.000117308 -8.3611e-05 1.50692
0.32 0.015 -0.0160523 -0.00011491 -8.30314e-05 1.49576
0.325 0.015 -0.0159401 -0.000112891 -8.24629e-05 1.4848
0.33 0.015 -0.0158296 -0.000111223 -8.19035e-05 1.474
0.335 0.015 -0.0157206 -0.000109882 -8.13516e-05 1.46333
0.34 0.015 -0.0156127 -0.000108844 -8.08057e-05 1.45278
0.345 0.015 -0.0155057 -0.000108085 -8.02643e-05 1.44232
0.35 0.015 -0.0153994 -0.000107585 -7.97259e-05 1.43192
0.355 0.015 -0.0152934 -0.000107324 -7.91895e-05 1.42156
0.36 0.015 -0.0151876 -0.000107283 -7.86538e-05 1.41124
0.365 0.015 -0.0150818 -0.000107445 -7.81178e-05 1.40091
0.37 0.015 -0.0149758 -0.000107792 -7.75805e-05 1.39059
0.375 0.015 -0.0148694 -0.000108308 -7.7041e-05 1.38024
0.38 0.015 -0.0147625 -0.00010898 -7.64986e-05 1.36985
0.385 0.015 -0.0146549 -0.000109791 -7.59524e-05 1.35942
0.39 0.015 -0.0145465 -0.000110729 -7.54018e-05 1.34892
0.395 0.015 -0.0144373 -0.000111781 -7.48463e-05 1.33836
0.4 0.015 -0.014327 -0.000112934 -7.42852e-05 1.32772
0.405 0.015 -0.0142157 -0.000114176 -7.37182e-05 1.317
0.41 0.015 -0.0141032 -0.000115498 -7.31447e-05 1.30618
0.415 0.015 -0.0139895 -0.000116887 -7.25644e-05 1.29527
0.42 0.015 -0.0138744 -0.000118334 -7.19771e-05 1.28425
0.425 0.015 -0.013758 -0.00011983 -7.13823e-05 1.27312
0.43 0.015 -0.0136403 -0.000121365 -7.078e-05 1.26189
0.435 0.015 -0.0135211 -0.00012293 -7.01699e-05 1.25053
0.44 0.015 -0.0134005 -0.000124519 -6.9552e-05 1.23907
0.445 0.015 -0.0132784 -0.000126123 -6.8926e-05 1.22748
0.45 0.015 -0.0131548 -0.000127734 -6.8292e-05 1.21577
0.455 0.015 -0.0130298 -0.000129347 -6.76499e-05 1.20395
0.46 0.015 -0.0129033 -0.000130954 -6.69998e-05 1.192
0.465 0.015 -0.0127754 -0.000132549 -6.63416e-05 1.17994
0.47 0.015 -0.0126459 -0.000134127 -6.56755e-05 1.16776
0.475 0.015 -0.0125151 -0.000135683 -6.50016e-05 1.15546
0.48 0.015 -0.0123828 -0.000137212 -6.43199e-05 1.14305
0.485 0.015 -0.0122492 -0.000138709 -6.36307e-05 1.13052
0.49 0.015 -0.0121142 -0.00014017 -6.2934e-05 1.11789
0.495 0.015 -0.0119779 -0.000141591 -6.22302e-05 1.10515
0.5 0.015 -0.0118403 -0.000142968 -6.15193e-05 1.0923
0.505 0.015 -0.0117014 -0.000144299 -6.08017e-05 1.07936
0.51 0.015 -0.0115614 -0.00014558 -6.00775e-05 1.06632
0.515 0.015 -0.0114202 -0.000146809 -5.93471e-05 1.05319
0.52 0.015 -0.011278 -0.000147984 -5.86106e-05 1.03997
0.525 0.015 -0.0111347 -0.000149102 -5.78684e-05 1.02666
0.53 0.015 -0.0109904 -0.000150162 -5.71208e-05 1.01328
0.535 0.015 -0.0108452 -0.000151162 -5.63679e-05 0.999825
0.54 0.015 -0.0106991 -0.000152101 -5.56103e-05 0.986299
0.545 0.015 -0.0105521 -0.000152978 -5.4848e-05 0.972707
0.55 0.015 -0.0104045 -0.000153792 -5.40816e-05 0.959056
0.555 0.015 -0.0102561 -0.000154543 -5.33112e-05 0.94535
0.56 0.015 -0.010107 -0.000155231 -5.25372e-05 0.931594
0.565 0.015 -0.0099574 -0.000155855 -5.176e-05 0.917792
0.57 0.015 -0.00980725 -0.000156415 -5.09797e-05 0.903951
0.575 0.015 -0.00965663 -0.000156913 -5.01968e-05 0.890074
0.58 0.015 -0.0095056 -0.000157347 -4.94116e-05 0.876167
0.585 0.015 -0.00935421 -0.000157719 -4.86244e-05 0.862235
0.59 0.015 -0.00920253 -0.00015803 -4.78354e-05 0.848283
0.595 0.015 -0.00905061 -0.00015828 -4.7045e-05 0.834314
0.6 0.015 -0.00889851 -0.000158471 -4.62535e-05 0.820335
0.605 0.015 -0.00874627 -0.000158604 -4.54612e-05 0.806349
0.61 0.015 -0.00859397 -0.00015868 -4.46684e-05 0.792361
0.615 0.015 -0.00844164 -0.000158699 -4.38753e-05 0.778376
0.62 0.015 -0.00828933 -0.000158665 -4.30823e-05 0.764397
0.625 0.015 -0.00813711 -0.000158578 -4.22896e-05 0.75043
0.63 0.015 -0.00798501 -0.000158439 -4.14974e-05 0.736478
0.635 0.015 -0.00783308 -0.000158252 -4.0706e-05 0.722544
0.64 0.015 -0.00768137 -0.000158016 -3.99157e-05 0.708634
0.645 0.015 -0.00752993 -0.000157734 -3.91266e-05 0.69475
0.65 0.015 -0.00737878 -0.000157407 -3.83391e-05 0.680896
0.655 0.015 -0.00722798 -0.000157038 -3.75533e-05 0.667076
0.66 0.015 -0.00707756 -0.000156628 -3.67694e-05 0.653292
0.665 0.015 -0.00692757 -0.000156178 -3.59877e-05 0.639549
0.67 0.015 -0.00677802 -0.000155691 -3.52083e-05 0.625849
0.675 0.015 -0.00662897 -0.000155167 -3.44315e-05 0.612194
0.68 0.015 -0.00648044 -0.000154609 -3.36573e-05 0.598589
0.685 0.015 -0.00633247 -0.000154019 -3.2886e-05 0.585035
0.69 0.015 -0.00618508 -0.000153396 -3.21177e-05 0.571535
0.695 0.015 -0.0060383 -0.000152743 -3.13527e-05 0.558092
0.7 0.015 -0.00589217 -0.000152062 -3.05909e-05 0.544707
0.705 0.015 -0.0057467 -0.000151352 -2.98326e-05 0.531384
0.71 0.015 -0.00560192 -0.000150616 -2.90779e-05 0.518125
0.715 0.015 -0.00545786 -0.000149855 -2.8327e-05 0.504931
0.72 0.015 -0.00531454 -0.000149068 -2.75799e-05 0.491804
0.725 0.015 -0.00517199 -0.000148257 -2.68368e-05 0.478748
0.73 0.015 -0.00503022 -0.000147422 -2.60978e-05 0.465763
0.735 0.015 -0.00488926 -0.000146564 -2.5363e-05 0.452853
0.74 0.015 -0.00474914 -0.000145683 -2.46326e-05 0.440018
0.745 0.015 -0.00460986 -0.000144778 -2.39066e-05 0.427261
0.75 0.015 -0.00447146 -0.00014385 -2.31852e-05 0.414584
0.755 0.015 -0.00433396 -0.000142898 -2.24685e-05 0.401989
0.76 0.015 -0.00419738 -0.000141921 -2.17566e-05 0.389478
0.765 0.015 -0.00406175 -0.000140919 -2.10496e-05 0.377054
0.77 0.015 -0.00392708 -0.000139891 -2.03477e-05 0.364718
0.775 0.015 -0.00379341 -0.000138834 -1.9651e-05 0.352474
0.78 0.015 -0.00366077 -0.000137749 -1.89597e-05 0.340323
0.785 0.015 -0.00352918 -0.000136632 -1.82738e-05 0.328269