Title=" Lid Driven Flow"
VARIABLES="X","Y","U","V","psi","xi"
ZONE T= "BOX", I= 201, J=201, F=POINT
0 0 0 0 0.00049111 0
0.005 0 0 0 0 0
0.01 0 0 0 0 0
0.015 0 0 0 0 161.888
0.02 0 0 0 0 176.135
0.025 0 0 0 0 155.653
0.03 0 0 0 0 133.317
0.035 0 0 0 0 115.855
0.04 0 0 0 0 103.054
0.045 0 0 0 0 93.5607
0.05 0 0 0 0 86.2614
0.055 0 0 0 0 80.4203
0.06 0 0 0 0 75.5781
0.065 0 0 0 0 71.4465
0.07 0 0 0 0 67.8392
0.075 0 0 0 0 64.6317
0.08 0 0 0 0 61.7378
0.085 0 0 0 0 59.0967
0.09 0 0 0 0 56.6637
0.095 0 0 0 0 54.406
0.1 0 0 0 0 52.2987
0.105 0 0 0 0 50.3227
0.11 0 0 0 0 48.4629
0.115 0 0 0 0 46.7074
0.12 0 0 0 0 45.0465
0.125 0 0 0 0 43.472
0.13 0 0 0 0 41.9773
0.135 0 0 0 0 40.5564
0.14 0 0 0 0 39.2041
0.145 0 0 0 0 37.9159
0.15 0 0 0 0 36.6877
0.155 0 0 0 0 35.5155
0.16 0 0 0 0 34.396
0.165 0 0 0 0 33.3258
0.17 0 0 0 0 32.3019
0.175 0 0 0 0 31.3213
0.18 0 0 0 0 30.3814
0.185 0 0 0 0 29.4796
0.19 0 0 0 0 28.6133
0.195 0 0 0 0 27.7803
0.2 0 0 0 0 26.9783
0.205 0 0 0 0 26.2052
0.21 0 0 0 0 25.4591
0.215 0 0 0 0 24.7379
0.22 0 0 0 0 24.04
0.225 0 0 0 0 23.3637
0.23 0 0 0 0 22.7073
0.235 0 0 0 0 22.0694
0.24 0 0 0 0 21.4485
0.245 0 0 0 0 20.8434
0.25 0 0 0 0 20.2528
0.255 0 0 0 0 19.6756
0.26 0 0 0 0 19.1107
0.265 0 0 0 0 18.5573
0.27 0 0 0 0 18.0144
0.275 0 0 0 0 17.4812
0.28 0 0 0 0 16.9571
0.285 0 0 0 0 16.4414
0.29 0 0 0 0 15.9335
0.295 0 0 0 0 15.4329
0.3 0 0 0 0 14.9393
0.305 0 0 0 0 14.4523
0.31 0 0 0 0 13.9716
0.315 0 0 0 0 13.497
0.32 0 0 0 0 13.0284
0.325 0 0 0 0 12.5656
0.33 0 0 0 0 12.1086
0.335 0 0 0 0 11.6574
0.34 0 0 0 0 11.212
0.345 0 0 0 0 10.7726
0.35 0 0 0 0 10.3393
0.355 0 0 0 0 9.9122
0.36 0 0 0 0 9.49157
0.365 0 0 0 0 9.07762
0.37 0 0 0 0 8.67058
0.375 0 0 0 0 8.27074
0.38 0 0 0 0 7.87836
0.385 0 0 0 0 7.49375
0.39 0 0 0 0 7.11718
0.395 0 0 0 0 6.74897
0.4 0 0 0 0 6.38939
0.405 0 0 0 0 6.03873
0.41 0 0 0 0 5.69726
0.415 0 0 0 0 5.36525
0.42 0 0 0 0 5.04292
0.425 0 0 0 0 4.7305
0.43 0 0 0 0 4.42818
0.435 0 0 0 0 4.13613
0.44 0 0 0 0 3.85448
0.445 0 0 0 0 3.58334
0.45 0 0 0 0 3.32279
0.455 0 0 0 0 3.07288
0.46 0 0 0 0 2.83361
0.465 0 0 0 0 2.60497
0.47 0 0 0 0 2.38691
0.475 0 0 0 0 2.17934
0.48 0 0 0 0 1.98215
0.485 0 0 0 0 1.79519
0.49 0 0 0 0 1.6183
0.495 0 0 0 0 1.45128
0.5 0 0 0 0 1.29391
0.505 0 0 0 0 1.14595
0.51 0 0 0 0 1.00713
0.515 0 0 0 0 0.877188
0.52 0 0 0 0 0.75582
0.525 0 0 0 0 0.642722
0.53 0 0 0 0 0.537582
0.535 0 0 0 0 0.440075
0.54 0 0 0 0 0.349874
0.545 0 0 0 0 0.266646
0.55 0 0 0 0 0.190059
0.555 0 0 0 0 0.11978
0.56 0 0 0 0 0.0554776
0.565 0 0 0 0 -0.00317478
0.57 0 0 0 0 -0.0564994
0.575 0 0 0 0 -0.104812
0.58 0 0 0 0 -0.148422
0.585 0 0 0 0 -0.187628
0.59 0 0 0 0 -0.222721
0.595 0 0 0 0 -0.253983
0.6 0 0 0 0 -0.281683
0.605 0 0 0 0 -0.30608
0.61 0 0 0 0 -0.327422
0.615 0 0 0 0 -0.345943
0.62 0 0 0 0 -0.361867
0.625 0 0 0 0 -0.375404
0.63 0 0 0 0 -0.386752
0.635 0 0 0 0 -0.396097
0.64 0 0 0 0 -0.403611
0.645 0 0 0 0 -0.409455
0.65 0 0 0 0 -0.413778
0.655 0 0 0 0 -0.416718
0.66 0 0 0 0 -0.418401
0.665 0 0 0 0 -0.418942
0.67 0 0 0 0 -0.418448
0.675 0 0 0 0 -0.417015
0.68 0 0 0 0 -0.414732
0.685 0 0 0 0 -0.411678
0.69 0 0 0 0 -0.407926
0.695 0 0 0 0 -0.403543
0.7 0 0 0 0 -0.39859
0.705 0 0 0 0 -0.393122
0.71 0 0 0 0 -0.387191
0.715 0 0 0 0 -0.380843
0.72 0 0 0 0 -0.374123
0.725 0 0 0 0 -0.36707
0.73 0 0 0 0 -0.359723
0.735 0 0 0 0 -0.352119
0.74 0 0 0 0 -0.34429
0.745 0 0 0 0 -0.336269
0.75 0 0 0 0 -0.328087
0.755 0 0 0 0 -0.319773
0.76 0 0 0 0 -0.311354
0.765 0 0 0 0 -0.302857
0.77 0 0 0 0 -0.294306
0.775 0 0 0 0 -0.285725
0.78 0 0 0 0 -0.277135
0.785 0 0 0 0 -0.268558
0.79 0 0 0 0 -0.260013
0.795 0 0 0 0 -0.251516
0.8 0 0 0 0 -0.243083
0.805 0 0 0 0 -0.234728
0.81 0 0 0 0 -0.226463
0.815 0 0 0 0 -0.218299
0.82 0 0 0 0 -0.210244
0.825 0 0 0 0 -0.202303
0.83 0 0 0 0 -0.194483
0.835 0 0 0 0 -0.186786
0.84 0 0 0 0 -0.179214
0.845 0 0 0 0 -0.171765
0.85 0 0 0 0 -0.164439
0.855 0 0 0 0 -0.157232
0.86 0 0 0 0 -0.150139
0.865 0 0 0 0 -0.143156
0.87 0 0 0 0 -0.136275
0.875 0 0 0 0 -0.129489
0.88 0 0 0 0 -0.122791
0.885 0 0 0 0 -0.116173
0.89 0 0 0 0 -0.109627
0.895 0 0 0 0 -0.103147
0.9 0 0 0 0 -0.096724
0.905 0 0 0 0 -0.0903543
0.91 0 0 0 0 -0.0840336
0.915 0 0 0 0 -0.0777599
0.92 0 0 0 0 -0.0715338
0.925 0 0 0 0 -0.0653589
0.93 0 0 0 0 -0.0592424
0.935 0 0 0 0 -0.0531957
0.94 0 0 0 0 -0.0472356
0.945 0 0 0 0 -0.0413844
0.95 0 0 0 0 -0.0356714
0.955 0 0 0 0 -0.0301338
0.96 0 0 0 0 -0.0248176
0.965 0 0 0 0 -0.0197791
0.97 0 0 0 0 -0.0150859
0.975 0 0 0 0 -0.0108182
0.98 0 0 0 0 -0.00706921
0.985 0 0 0 0 -0.00394406
0.99 0 0 0 0 -0.00155495
0.995 0 0 0 0 -6.12573e-06
1 0 0 0 0 0.000645783
0 0.005 0 0 0 0
0.005 0.005 0 0 0 0
0.01 0.005 0 0 0 73.7241
0.015 0.005 0 0 0 61.9762
0.02 0.005 0 0 0 45.5094
0.025 0.005 0 0 0 33.675
0.03 0.005 0 0 0 25.7956
0.035 0.005 0 0 0 20.466
0.04 0.005 0 0 0 16.723
0.045 0.005 0 0 0 13.9905
0.05 0.005 0 0 0 11.9279
0.055 0.005 0 0 0 10.3279
0.06 0.005 0 0 0 9.059
0.065 0.005 0 0 0 8.0346
0.07 0.005 0 0 0 7.19533
0.075 0.005 0 0 0 6.49926
0.08 0.005 0 0 0 5.91593
0.085 0.005 0 0 0 5.4227
0.09 0.005 0 0 0 5.00246
0.095 0.005 0 0 0 4.642
0.1 0.005 0 0 0 4.33101
0.105 0.005 0 0 0 4.06134
0.11 0.005 0 0 0 3.82646
0.115 0.005 0 0 0 3.62109
0.12 0.005 0 0 0 3.44092
0.125 0.005 0 0 0 3.28242
0.13 0.005 0 0 0 3.14264
0.135 0.005 0 0 0 3.01913
0.14 0.005 0 0 0 2.90982
0.145 0.005 0 0 0 2.81296
0.15 0.005 0 0 0 2.72708
0.155 0.005 0 0 0 2.65089
0.16 0.005 0 0 0 2.5833
0.165 0.005 0 0 0 2.52337
0.17 0.005 0 0 0 2.47026
0.175 0.005 0 0 0 2.42326
0.18 0.005 0 0 0 2.38175
0.185 0.005 0 0 0 2.34515
0.19 0.005 0 0 0 2.31298
0.195 0.005 0 0 0 2.2848
0.2 0.005 0 0 0 2.26023
0.205 0.005 0 0 0 2.23891
0.21 0.005 0 0 0 2.22053
0.215 0.005 0 0 0 2.20481
0.22 0.005 0 0 0 2.19149
0.225 0.005 0 0 0 2.18033
0.23 0.005 0 0 0 2.17114
0.235 0.005 0 0 0 2.1637
0.24 0.005 0 0 0 2.15785
0.245 0.005 0 0 0 2.15342
0.25 0.005 0 0 0 2.15026
0.255 0.005 0 0 0 2.14823
0.26 0.005 0 0 0 2.1472
0.265 0.005 0 0 0 2.14704
0.27 0.005 0 0 0 2.14765
0.275 0.005 0 0 0 2.14892
0.28 0.005 0 0 0 2.15076
0.285 0.005 0 0 0 2.15305
0.29 0.005 0 0 0 2.15573
0.295 0.005 0 0 0 2.1587
0.3 0.005 0 0 0 2.16189
0.305 0.005 0 0 0 2.16522
0.31 0.005 0 0 0 2.16863
0.315 0.005 0 0 0 2.17205
0.32 0.005 0 0 0 2.17541
0.325 0.005 0 0 0 2.17866
0.33 0.005 0 0 0 2.18174
0.335 0.005 0 0 0 2.1846
0.34 0.005 0 0 0 2.18718
0.345 0.005 0 0 0 2.18945
0.35 0.005 0 0 0 2.19135
0.355 0.005 0 0 0 2.19284
0.36 0.005 0 0 0 2.19388
0.365 0.005 0 0 0 2.19444
0.37 0.005 0 0 0 2.19449
0.375 0.005 0 0 0 2.19398
0.38 0.005 0 0 0 2.19289
0.385 0.005 0 0 0 2.1912
0.39 0.005 0 0 0 2.18887
0.395 0.005 0 0 0 2.18589
0.4 0.005 0 0 0 2.18223
0.405 0.005 0 0 0 2.17787
0.41 0.005 0 0 0 2.17281
0.415 0.005 0 0 0 2.16702
0.42 0.005 0 0 0 2.16049
0.425 0.005 0 0 0 2.15321
0.43 0.005 0 0 0 2.14519
0.435 0.005 0 0 0 2.1364
0.44 0.005 0 0 0 2.12684
0.445 0.005 0 0 0 2.11653
0.45 0.005 0 0 0 2.10544
0.455 0.005 0 0 0 2.09359
0.46 0.005 0 0 0 2.08098
0.465 0.005 0 0 0 2.06762
0.47 0.005 0 0 0 2.05351
0.475 0.005 0 0 0 2.03866
0.48 0.005 0 0 0 2.02308
0.485 0.005 0 0 0 2.00679
0.49 0.005 0 0 0 1.98979
0.495 0.005 0 0 0 1.9721
0.5 0.005 0 0 0 1.95373
0.505 0.005 0 0 0 1.93471
0.51 0.005 0 0 0 1.91505
0.515 0.005 0 0 0 1.89477
0.52 0.005 0 0 0 1.87389
0.525 0.005 0 0 0 1.85243
0.53 0.005 0 0 0 1.83041
0.535 0.005 0 0 0 1.80786
0.54 0.005 0 0 0 1.7848
0.545 0.005 0 0 0 1.76124
0.55 0.005 0 0 0 1.73722
0.555 0.005 0 0 0 1.71276
0.56 0.005 0 0 0 1.68788
0.565 0.005 0 0 0 1.6626
0.57 0.005 0 0 0 1.63696
0.575 0.005 0 0 0 1.61098
0.58 0.005 0 0 0 1.58468
0.585 0.005 0 0 0 1.55809
0.59 0.005 0 0 0 1.53123
0.595 0.005 0 0 0 1.50413
0.6 0.005 0 0 0 1.47681
0.605 0.005 0 0 0 1.44929
0.61 0.005 0 0 0 1.4216
0.615 0.005 0 0 0 1.39377
0.62 0.005 0 0 0 1.36581
0.625 0.005 0 0 0 1.33775
0.63 0.005 0 0 0 1.30961
0.635 0.005 0 0 0 1.28141
0.64 0.005 0 0 0 1.25318
0.645 0.005 0 0 0 1.22493
0.65 0.005 0 0 0 1.19668
0.655 0.005 0 0 0 1.16845
0.66 0.005 0 0 0 1.14027
0.665 0.005 0 0 0 1.11215
0.67 0.005 0 0 0 1.0841
0.675 0.005 0 0 0 1.05615
0.68 0.005 0 0 0 1.02831
0.685 0.005 0 0 0 1.0006
0.69 0.005 0 0 0 0.973031
0.695 0.005 0 0 0 0.945619
0.7 0.005 0 0 0 0.918377
0.705 0.005 0 0 0 0.891321
0.71 0.005 0 0 0 0.864462
0.715 0.005 0 0 0 0.837814
0.72 0.005 0 0 0 0.811389
0.725 0.005 0 0 0 0.785199
0.73 0.005 0 0 0 0.759254
0.735 0.005 0 0 0 0.733565
0.74 0.005 0 0 0 0.708144
0.745 0.005 0 0 0 0.683001
0.75 0.005 0 0 0 0.658144
0.755 0.005 0 0 0 0.633585
0.76 0.005 0 0 0 0.609331
0.765 0.005 0 0 0 0.585393
0.77 0.005 0 0 0 0.56178
0.775 0.005 0 0 0 0.538499
0.78 0.005 0 0 0 0.515561
0.785 0.005 0 0 0 0.492972
0.79 0.005 0 0 0 0.470743
0.795 0.005 0 0 0 0.448881
0.8 0.005 0 0 0 0.427396
0.805 0.005 0 0 0 0.406294
0.81 0.005 0 0 0 0.385586
0.815 0.005 0 0 0 0.36528
0.82 0.005 0 0 0 0.345384
0.825 0.005 0 0 0 0.325908
0.83 0.005 0 0 0 0.306861
0.835 0.005 0 0 0 0.288251
0.84 0.005 0 0 0 0.27009
0.845 0.005 0 0 0 0.252386
0.85 0.005 0 0 0 0.23515
0.855 0.005 0 0 0 0.218392
0.86 0.005 0 0 0 0.202123
0.865 0.005 0 0 0 0.186355
0.87 0.005 0 0 0 0.171098
0.875 0.005 0 0 0 0.156366
0.88 0.005 0 0 0 0.14217
0.885 0.005 0 0 0 0.128524
0.89 0.005 0 0 0 0.115442
0.895 0.005 0 0 0 0.102937
0.9 0.005 0 0 0 0.0910252
0.905 0.005 0 0 0 0.0797218
0.91 0.005 0 0 0 0.069043
0.915 0.005 0 0 0 0.0590061
0.92 0.005 0 0 0 0.0496287
0.925 0.005 0 0 0 0.0409293
0.93 0.005 0 0 0 0.0329271
0.935 0.005 0 0 0 0.0256419
0.94 0.005 0 0 0 0.0190937
0.945 0.005 0 0 0 0.0133026
0.95 0.005 0 0 0 0.00828818
0.955 0.005 0 0 0 0.00406868
0.96 0.005 0 0 0 0.00065956
0.965 0.005 0 0 0 -0.00192856
0.97 0.005 0 0 0 -0.00369342
0.975 0.005 0 0 0 -0.00464677
0.98 0.005 0 0 0 -0.00482385
0.985 0.005 0 0 0 -0.00429937
0.99 0.005 0 0 0 -0.00321489
0.995 0.005 0 0 0 -0.00182342
1 0.005 0 0 0 -0.000549343
0 0.01 0 0 -0.000549343 0
0.005 0.01 0 0 0 -326.276
0.01 0.01 -0.179945 0.0774702 -0.000921551 -44.482
0.015 0.01 -0.184449 -0.0352684 -0.000774702 9.44401
0.02 0.01 -0.155631 -0.0353765 -0.000568868 19.0591
0.025 0.01 -0.126659 -0.0246423 -0.000420937 18.9662
0.03 0.01 -0.103421 -0.0165112 -0.000322445 16.8475
0.035 0.01 -0.0856518 -0.0113408 -0.000255825 14.588
0.04 0.01 -0.0720882 -0.0080944 -0.000209037 12.6176
0.045 0.01 -0.0616012 -0.00599379 -0.000174881 10.9849
0.05 0.01 -0.0533581 -0.00457827 -0.000149099 9.64658
0.055 0.01 -0.0467727 -0.00358615 -0.000129098 8.54677
0.06 0.01 -0.0414335 -0.0028666 -0.000113237 7.63665
0.065 0.01 -0.0370485 -0.00232957 -0.000100432 6.87736
0.07 0.01 -0.0334063 -0.00191916 -8.99416e-05 6.2388
0.075 0.01 -0.0303515 -0.00159925 -8.12407e-05 5.69772
0.08 0.01 -0.0277674 -0.00134569 -7.3949e-05 5.2361
0.085 0.01 -0.0255651 -0.00114182 -6.77837e-05 4.83984
0.09 0.01 -0.0236759 -0.000975871 -6.25306e-05 4.49779
0.095 0.01 -0.0220458 -0.000839298 -5.80248e-05 4.20108
0.1 0.01 -0.0206323 -0.000725808 -5.41375e-05 3.94256
0.105 0.01 -0.0194009 -0.000630675 -5.07666e-05 3.71643
0.11 0.01 -0.0183241 -0.000550299 -4.78306e-05 3.51794
0.115 0.01 -0.0173792 -0.000481904 -4.52635e-05 3.34319
0.12 0.01 -0.0165475 -0.000423322 -4.30114e-05 3.18893
0.125 0.01 -0.0158137 -0.000372843 -4.10301e-05 3.05245
0.13 0.01 -0.0151649 -0.000329105 -3.92829e-05 2.93146
0.135 0.01 -0.0145902 -0.000291017 -3.77389e-05 2.82406
0.14 0.01 -0.0140804 -0.000257693 -3.63726e-05 2.72858
0.145 0.01 -0.0136278 -0.000228411 -3.51619e-05 2.64363
0.15 0.01 -0.0132256 -0.000202579 -3.40884e-05 2.56801
0.155 0.01 -0.0128682 -0.000179709 -3.3136e-05 2.50068
0.16 0.01 -0.0125505 -0.000159393 -3.22912e-05 2.44073
0.165 0.01 -0.0122683 -0.000141292 -3.1542e-05 2.38739
0.17 0.01 -0.0120179 -0.000125121 -3.08782e-05 2.33995
0.175 0.01 -0.0117958 -0.000110638 -3.02907e-05 2.29781
0.18 0.01 -0.0115993 -9.76398e-05 -2.97718e-05 2.26045
0.185 0.01 -0.0114258 -8.59517e-05 -2.93143e-05 2.22738
0.19 0.01 -0.0112729 -7.5425e-05 -2.89122e-05 2.19819
0.195 0.01 -0.0111388 -6.5932e-05 -2.856e-05 2.17251
0.2 0.01 -0.0110215 -5.73627e-05 -2.82529e-05 2.14999
0.205 0.01 -0.0109194 -4.96216e-05 -2.79864e-05 2.13033
0.21 0.01 -0.0108311 -4.26263e-05 -2.77566e-05 2.11326
0.215 0.01 -0.0107553 -3.63047e-05 -2.75601e-05 2.09853
0.22 0.01 -0.0106908 -3.0594e-05 -2.73936e-05 2.08591
0.225 0.01 -0.0106364 -2.54392e-05 -2.72542e-05 2.07521
0.23 0.01 -0.0105912 -2.07918e-05 -2.71392e-05 2.06624
0.235 0.01 -0.0105543 -1.66093e-05 -2.70463e-05 2.05882
0.24 0.01 -0.0105248 -1.2854e-05 -2.69732e-05 2.05279
0.245 0.01 -0.010502 -9.49255e-06 -2.69178e-05 2.04802
0.25 0.01 -0.0104851 -6.49522e-06 -2.68783e-05 2.04436
0.255 0.01 -0.0104735 -3.83557e-06 -2.68529e-05 2.04169
0.26 0.01 -0.0104666 -1.48992e-06 -2.68401e-05 2.03989
0.265 0.01 -0.0104638 5.62985e-07 -2.68381e-05 2.03886
0.27 0.01 -0.0104645 2.3423e-06 -2.68458e-05 2.03849
0.275 0.01 -0.0104684 3.86533e-06 -2.68617e-05 2.03869
0.28 0.01 -0.0104748 5.14779e-06 -2.68846e-05 2.03938
0.285 0.01 -0.0104833 6.20401e-06 -2.69133e-05 2.04046
0.29 0.01 -0.0104936 7.0471e-06 -2.69467e-05 2.04186
0.295 0.01 -0.0105052 7.68911e-06 -2.69839e-05 2.0435
0.3 0.01 -0.0105179 8.1412e-06 -2.70238e-05 2.04532
0.305 0.01 -0.0105311 8.41371e-06 -2.70655e-05 2.04725
0.31 0.01 -0.0105446 8.5163e-06 -2.71081e-05 2.04922
0.315 0.01 -0.0105582 8.45803e-06 -2.71508e-05 2.05119
0.32 0.01 -0.0105714 8.24745e-06 -2.71929e-05 2.05308
0.325 0.01 -0.010584 7.89267e-06 -2.72335e-05 2.05486
0.33 0.01 -0.0105958 7.40139e-06 -2.7272e-05 2.05647
0.335 0.01 -0.0106065 6.78102e-06 -2.73077e-05 2.05786
0.34 0.01 -0.0106159 6.03865e-06 -2.734e-05 2.05899
0.345 0.01 -0.0106237 5.18115e-06 -2.73683e-05 2.05982
0.35 0.01 -0.0106297 4.21518e-06 -2.73921e-05 2.06031
0.355 0.01 -0.0106337 3.14721e-06 -2.74107e-05 2.06042
0.36 0.01 -0.0106357 1.98358e-06 -2.74238e-05 2.06012
0.365 0.01 -0.0106352 7.30471e-07 -2.74308e-05 2.05938
0.37 0.01 -0.0106324 -6.06032e-07 -2.74314e-05 2.05817
0.375 0.01 -0.0106268 -2.01995e-06 -2.7425e-05 2.05646
0.38 0.01 -0.0106186 -3.50541e-06 -2.74114e-05 2.05422
0.385 0.01 -0.0106074 -5.05658e-06 -2.73903e-05 2.05143
0.39 0.01 -0.0105932 -6.66775e-06 -2.73612e-05 2.04807
0.395 0.01 -0.0105759 -8.33327e-06 -2.73239e-05 2.04413
0.4 0.01 -0.0105554 -1.00475e-05 -2.72781e-05 2.03958
0.405 0.01 -0.0105316 -1.18051e-05 -2.72237e-05 2.0344
0.41 0.01 -0.0105045 -1.36004e-05 -2.71604e-05 2.0286
0.415 0.01 -0.0104739 -1.54281e-05 -2.7088e-05 2.02215
0.42 0.01 -0.0104398 -1.72831e-05 -2.70064e-05 2.01504
0.425 0.01 -0.0104022 -1.916e-05 -2.69155e-05 2.00728
0.43 0.01 -0.0103611 -2.10537e-05 -2.68152e-05 1.99884
0.435 0.01 -0.0103163 -2.29594e-05 -2.67053e-05 1.98974
0.44 0.01 -0.010268 -2.4872e-05 -2.65859e-05 1.97996
0.445 0.01 -0.0102161 -2.67868e-05 -2.64569e-05 1.9695
0.45 0.01 -0.0101605 -2.86991e-05 -2.63184e-05 1.95838
0.455 0.01 -0.0101014 -3.06044e-05 -2.61703e-05 1.94658
0.46 0.01 -0.0100387 -3.24983e-05 -2.60126e-05 1.93412
0.465 0.01 -0.00997253 -3.43766e-05 -2.58456e-05 1.921
0.47 0.01 -0.0099028 -3.62351e-05 -2.56692e-05 1.90723
0.475 0.01 -0.00982961 -3.807e-05 -2.54836e-05 1.89281
0.48 0.01 -0.00975302 -3.98774e-05 -2.52889e-05 1.87775
0.485 0.01 -0.00967307 -4.16538e-05 -2.50852e-05 1.86207
0.49 0.01 -0.00958982 -4.33957e-05 -2.48727e-05 1.84578
0.495 0.01 -0.00950336 -4.51e-05 -2.46515e-05 1.8289
0.5 0.01 -0.00941375 -4.67636e-05 -2.4422e-05 1.81142
0.505 0.01 -0.00932107 -4.83836e-05 -2.41842e-05 1.79338
0.51 0.01 -0.00922542 -4.99575e-05 -2.39385e-05 1.77479
0.515 0.01 -0.00912687 -5.14827e-05 -2.3685e-05 1.75566
0.52 0.01 -0.00902553 -5.29571e-05 -2.3424e-05 1.73601
0.525 0.01 -0.00892149 -5.43785e-05 -2.31557e-05 1.71587
0.53 0.01 -0.00881485 -5.57453e-05 -2.28805e-05 1.69524
0.535 0.01 -0.00870572 -5.70557e-05 -2.25986e-05 1.67416
0.54 0.01 -0.00859421 -5.83083e-05 -2.23103e-05 1.65263
0.545 0.01 -0.00848042 -5.95018e-05 -2.20158e-05 1.63068
0.55 0.01 -0.00836447 -6.06354e-05 -2.17155e-05 1.60833
0.555 0.01 -0.00824647 -6.17081e-05 -2.14097e-05 1.58561
0.56 0.01 -0.00812654 -6.27192e-05 -2.10987e-05 1.56253
0.565 0.01 -0.00800479 -6.36683e-05 -2.07828e-05 1.53912
0.57 0.01 -0.00788134 -6.45552e-05 -2.04623e-05 1.51539
0.575 0.01 -0.00775631 -6.53796e-05 -2.01376e-05 1.49137
0.58 0.01 -0.0076298 -6.61417e-05 -1.98088e-05 1.46708
0.585 0.01 -0.00750195 -6.68417e-05 -1.94764e-05 1.44254
0.59 0.01 -0.00737286 -6.74798e-05 -1.91407e-05 1.41778
0.595 0.01 -0.00724265 -6.80566e-05 -1.88019e-05 1.39281
0.6 0.01 -0.00711143 -6.85727e-05 -1.84603e-05 1.36766
0.605 0.01 -0.00697932 -6.90289e-05 -1.81164e-05 1.34234
0.61 0.01 -0.00684642 -6.94261e-05 -1.77703e-05 1.31688
0.615 0.01 -0.00671286 -6.97651e-05 -1.74223e-05 1.2913
0.62 0.01 -0.00657872 -7.0047e-05 -1.70729e-05 1.26562
0.625 0.01 -0.00644413 -7.02731e-05 -1.67221e-05 1.23985
0.63 0.01 -0.00630917 -7.04444e-05 -1.63703e-05 1.21402
0.635 0.01 -0.00617397 -7.05624e-05 -1.60179e-05 1.18815
0.64 0.01 -0.0060386 -7.06283e-05 -1.56649e-05 1.16225
0.645 0.01 -0.00590317 -7.06435e-05 -1.53118e-05 1.13634
0.65 0.01 -0.00576777 -7.06095e-05 -1.49587e-05 1.11044
0.655 0.01 -0.0056325 -7.05277e-05 -1.46058e-05 1.08456
0.66 0.01 -0.00549743 -7.03996e-05 -1.42535e-05 1.05873
0.665 0.01 -0.00536266 -7.02267e-05 -1.3902e-05 1.03295
0.67 0.01 -0.00522827 -7.00105e-05 -1.35514e-05 1.00724
0.675 0.01 -0.00509433 -6.97524e-05 -1.32021e-05 0.981629
0.68 0.01 -0.00496093 -6.94539e-05 -1.28541e-05 0.956115
0.685 0.01 -0.00482813 -6.91166e-05 -1.25077e-05 0.930716
0.69 0.01 -0.00469601 -6.87417e-05 -1.2163e-05 0.905447
0.695 0.01 -0.00456465 -6.83307e-05 -1.18204e-05 0.88032
0.7 0.01 -0.00443409 -6.7885e-05 -1.14798e-05 0.855347
0.705 0.01 -0.00430442 -6.74059e-05 -1.11416e-05 0.830541
0.71 0.01 -0.00417569 -6.68945e-05 -1.08059e-05 0.805913
0.715 0.01 -0.00404795 -6.63522e-05 -1.04728e-05 0.781474
0.72 0.01 -0.00392128 -6.57801e-05 -1.01425e-05 0.757235
0.725 0.01 -0.00379571 -6.51793e-05 -9.81507e-06 0.733206
0.73 0.01 -0.00367132 -6.45507e-05 -9.49076e-06 0.709398
0.735 0.01 -0.00354814 -6.38953e-05 -9.16965e-06 0.68582
0.74 0.01 -0.00342622 -6.32141e-05 -8.85188e-06 0.662481
0.745 0.01 -0.00330563 -6.25078e-05 -8.53758e-06 0.639391
0.75 0.01 -0.00318639 -6.17772e-05 -8.22687e-06 0.616559
0.755 0.01 -0.00306857 -6.10228e-05 -7.91987e-06 0.593992
0.76 0.01 -0.00295219 -6.02453e-05 -7.6167e-06 0.571701
0.765 0.01 -0.00283731 -5.94452e-05 -7.31747e-06 0.549692
0.77 0.01 -0.00272398 -5.8623e-05 -7.0223e-06 0.527975
0.775 0.01 -0.00261222 -5.77788e-05 -6.73129e-06 0.506557
0.78 0.01 -0.00250208 -5.69131e-05 -6.44455e-06 0.485447
0.785 0.01 -0.00239361 -5.6026e-05 -6.16219e-06 0.464651
0.79 0.01 -0.00228685 -5.51176e-05 -5.88432e-06 0.444179
0.795 0.01 -0.00218183 -5.41879e-05 -5.61105e-06 0.424038
0.8 0.01 -0.0020786 -5.32369e-05 -5.34247e-06 0.404236
0.805 0.01 -0.0019772 -5.22645e-05 -5.0787e-06 0.384781
0.81 0.01 -0.00187767 -5.12705e-05 -4.81985e-06 0.36568
0.815 0.01 -0.00178004 -5.02546e-05 -4.56601e-06 0.346943
0.82 0.01 -0.00168438 -4.92165e-05 -4.31732e-06 0.328577
0.825 0.01 -0.00159071 -4.81558e-05 -4.07386e-06 0.310591
0.83 0.01 -0.00149909 -4.70719e-05 -3.83577e-06 0.292993
0.835 0.01 -0.00140955 -4.59643e-05 -3.60315e-06 0.275793
0.84 0.01 -0.00132215 -4.48325e-05 -3.37613e-06 0.258999
0.845 0.01 -0.00123693 -4.36756e-05 -3.15483e-06 0.24262
0.85 0.01 -0.00115394 -4.24929e-05 -2.93938e-06 0.226666
0.855 0.01 -0.00107324 -4.12836e-05 -2.7299e-06 0.211147
0.86 0.01 -0.000994865 -4.00467e-05 -2.52654e-06 0.196073
0.865 0.01 -0.000918883 -3.87812e-05 -2.32943e-06 0.181455
0.87 0.01 -0.000845346 -3.7486e-05 -2.13872e-06 0.167302
0.875 0.01 -0.000774312 -3.61599e-05 -1.95457e-06 0.153628
0.88 0.01 -0.000705843 -3.48017e-05 -1.77712e-06 0.140443
0.885 0.01 -0.000640001 -3.34099e-05 -1.60655e-06 0.127758
0.89 0.01 -0.000576851 -3.19832e-05 -1.44301e-06 0.115588
0.895 0.01 -0.000516461 -3.05199e-05 -1.28671e-06 0.103944
0.9 0.01 -0.000458903 -2.90184e-05 -1.13781e-06 0.0928406
0.905 0.01 -0.000404249 -2.7477e-05 -9.96515e-07 0.0822907
0.91 0.01 -0.000352576 -2.58939e-05 -8.63031e-07 0.0723088
0.915 0.01 -0.000303963 -2.42673e-05 -7.37569e-07 0.0629094
0.92 0.01 -0.000258492 -2.25953e-05 -6.20351e-07 0.0541074
0.925 0.01 -0.000216245 -2.08762e-05 -5.11609e-07 0.0459179
0.93 0.01 -0.000177311 -1.91085e-05 -4.11582e-07 0.0383559
0.935 0.01 -0.000141773 -1.72911e-05 -3.20518e-07 0.0314362
0.94 0.01 -0.00010972 -1.54235e-05 -2.38665e-07 0.0251731
0.945 0.01 -8.12335e-05 -1.35063e-05 -1.66277e-07 0.0195794
0.95 0.01 -5.63923e-05 -1.15419e-05 -1.03598e-07 0.0146664
0.955 0.01 -3.52634e-05 -9.5353e-06 -5.08543e-08 0.0104421
0.96 0.01 -1.78963e-05 -7.49613e-06 -8.24099e-09 0.00690962
0.965 0.01 -4.31243e-06 -5.44087e-06 2.41098e-08 0.00406528
0.97 0.01 5.51164e-06 -3.39748e-06 4.61699e-08 0.00189459
0.975 0.01 1.16686e-05 -1.41282e-06 5.80863e-08 0.000367504
0.98 0.01 1.43586e-05 4.34417e-07 6.02992e-08 -0.000568797
0.985 0.01 1.39467e-05 2.01131e-06 5.37427e-08 -0.000999325
0.99 0.01 1.10498e-05 3.095e-06 4.01864e-08 -0.00105158
0.995 0.01 6.65782e-06 3.33196e-06 2.27927e-08 -0.000898437
1 0.01 2.27556e-06 2.27927e-06 6.86674e-09 -0.000723264
0 0.015 0 0 -0.00182045 0
0.005 0.015 0 0 0 -256.044
0.01 0.015 -0.152617 0.184449 -0.00179945 -79.3618
0.015 0.015 -0.205605 -0.0243143 -0.00184449 -16.6699
0.02 0.015 -0.203649 -0.0577899 -0.00155631 2.4029
0.025 0.015 -0.183657 -0.0522104 -0.00126659 8.10373
0.03 0.015 -0.160593 -0.0410074 -0.00103421 9.48441
0.035 0.015 -0.139424 -0.0313323 -0.000856518 9.39614
0.04 0.015 -0.121347 -0.0240506 -0.000720882 8.82169
0.045 0.015 -0.106284 -0.0187301 -0.000616012 8.12082
0.05 0.015 -0.093807 -0.0148285 -0.000533581 7.42735
0.055 0.015 -0.0834503 -0.0119246 -0.000467726 6.78843
0.06 0.015 -0.0748078 -0.00972416 -0.000414335 6.217
0.065 0.015 -0.0675488 -0.00802714 -0.000370484 5.71255
0.07 0.015 -0.0614109 -0.00669691 -0.000334063 5.26961
0.075 0.015 -0.0561873 -0.00563887 -0.000303515 4.88128
0.08 0.015 -0.0517149 -0.00478636 -0.000277674 4.5407
0.085 0.015 -0.0478643 -0.00409149 -0.000255651 4.24158
0.09 0.015 -0.0445322 -0.00351924 -0.000236758 3.97837
0.095 0.015 -0.0416358 -0.00304358 -0.000220458 3.74627
0.1 0.015 -0.0391076 -0.00264488 -0.000206322 3.54117
0.105 0.015 -0.0368927 -0.00230812 -0.000194009 3.35954
0.11 0.015 -0.034946 -0.00202169 -0.00018324 3.19839
0.115 0.015 -0.0332301 -0.0017765 -0.000173791 3.05515
0.12 0.015 -0.0317139 -0.00156537 -0.000165475 2.92762
0.125 0.015 -0.0303712 -0.00138258 -0.000158137 2.81393
0.13 0.015 -0.0291802 -0.00122352 -0.000151649 2.71246
0.135 0.015 -0.028122 -0.00108447 -0.000145901 2.62181
0.14 0.015 -0.0271809 -0.000962379 -0.000140804 2.54076
0.145 0.015 -0.0263433 -0.000854764 -0.000136277 2.46828
0.15 0.015 -0.0255973 -0.000759557 -0.000132256 2.40343
0.155 0.015 -0.0249328 -0.000675046 -0.000128681 2.34542
0.16 0.015 -0.0243411 -0.000599799 -0.000125505 2.29355
0.165 0.015 -0.0238145 -0.000532613 -0.000122683 2.24719
0.17 0.015 -0.0233461 -0.000472476 -0.000120178 2.2058
0.175 0.015 -0.0229301 -0.000418526 -0.000117958 2.16888
0.18 0.015 -0.0225613 -0.000370032 -0.000115993 2.13601
0.185 0.015 -0.022235 -0.000326368 -0.000114258 2.1068
0.19 0.015 -0.0219469 -0.000286997 -0.000112729 2.08089
0.195 0.015 -0.0216936 -0.000251457 -0.000111388 2.05798
0.2 0.015 -0.0214716 -0.000219347 -0.000110215 2.03778
0.205 0.015 -0.0212779 -0.000190321 -0.000109194 2.02004
0.21 0.015 -0.0211098 -0.000164077 -0.000108311 2.00454
0.215 0.015 -0.020965 -0.000140351 -0.000107553 1.99105
0.22 0.015 -0.0208412 -0.000118913 -0.000106908 1.97939
0.225 0.015 -0.0207363 -9.95595e-05 -0.000106364 1.96937
0.23 0.015 -0.0206485 -8.21128e-05 -0.000105913 1.96085
0.235 0.015 -0.0205762 -6.64148e-05 -0.000105543 1.95366
0.24 0.015 -0.0205176 -5.23261e-05 -0.000105249 1.94768
0.245 0.015 -0.0204715 -3.97224e-05 -0.00010502 1.94277
0.25 0.015 -0.0204364 -2.84932e-05 -0.000104852 1.93882
0.255 0.015 -0.0204112 -1.85397e-05 -0.000104736 1.93572
0.26 0.015 -0.0203946 -9.77307e-06 -0.000104667 1.93336
0.265 0.015 -0.0203856 -2.11367e-06 -0.000104638 1.93165
0.27 0.015 -0.0203832 4.51059e-06 -0.000104646 1.93051
0.275 0.015 -0.0203865 1.0165e-05 -0.000104684 1.92984
0.28 0.015 -0.0203945 1.49089e-05 -0.000104748 1.92957
0.285 0.015 -0.0204064 1.87967e-05 -0.000104834 1.92962
0.29 0.015 -0.0204215 2.1878e-05 -0.000104937 1.92994
0.295 0.015 -0.020439 2.41989e-05 -0.000105053 1.93044
0.3 0.015 -0.0204582 2.58018e-05 -0.000105179 1.93107
0.305 0.015 -0.0204784 2.67262e-05 -0.000105312 1.93178
0.31 0.015 -0.0204991 2.7009e-05 -0.000105447 1.9325
0.315 0.015 -0.0205197 2.66851e-05 -0.000105582 1.93319
0.32 0.015 -0.0205395 2.57872e-05 -0.000105715 1.93379
0.325 0.015 -0.0205581 2.43465e-05 -0.000105841 1.93427
0.33 0.015 -0.020575 2.23925e-05 -0.000105959 1.93458
0.335 0.015 -0.0205897 1.99537e-05 -0.000106066 1.93467
0.34 0.015 -0.0206018 1.70574e-05 -0.000106159 1.93451
0.345 0.015 -0.0206108 1.373e-05 -0.000106237 1.93407
0.35 0.015 -0.0206164 9.99703e-06 -0.000106298 1.93331
0.355 0.015 -0.0206182 5.88345e-06 -0.000106338 1.93219
0.36 0.015 -0.0206159 1.41348e-06 -0.000106358 1.9307
0.365 0.015 -0.0206091 -3.38912e-06 -0.000106354 1.9288
0.37 0.015 -0.0205975 -8.50111e-06 -0.000106325 1.92647
0.375 0.015 -0.020581 -1.38996e-05 -0.00010627 1.92369
0.38 0.015 -0.0205591 -1.95622e-05 -0.000106187 1.92043
0.385 0.015 -0.0205317 -2.54667e-05 -0.000106075 1.91667
0.39 0.015 -0.0204986 -3.15914e-05 -0.000105933 1.91241
0.395 0.015 -0.0204596 -3.79147e-05 -0.00010576 1.90761
0.4 0.015 -0.0204145 -4.44156e-05 -0.000105555 1.90228
0.405 0.015 -0.0203631 -5.10731e-05 -0.000105317 1.89639
0.41 0.015 -0.0203054 -5.78668e-05 -0.000105046 1.88994
0.415 0.015 -0.0202412 -6.47764e-05 -0.00010474 1.88292
0.42 0.015 -0.0201705 -7.17821e-05 -0.000104399 1.87532
0.425 0.015 -0.020093 -7.88644e-05 -0.000104023 1.86714
0.43 0.015 -0.0200089 -8.6004e-05 -0.000103612 1.85837
0.435 0.015 -0.019918 -9.31825e-05 -0.000103165 1.84901
0.44 0.015 -0.0198204 -0.000100381 -0.000102681 1.83906
0.445 0.015 -0.019716 -0.000107583 -0.000102162 1.82853
0.45 0.015 -0.0196048 -0.00011477 -0.000101607 1.8174
0.455 0.015 -0.019487 -0.000121925 -0.000101016 1.8057
0.46 0.015 -0.0193624 -0.000129032 -0.000100389 1.79341
0.465 0.015 -0.0192312 -0.000136076 -9.97266e-05 1.78056
0.47 0.015 -0.0190934 -0.000143042 -9.90293e-05 1.76713
0.475 0.015 -0.0189491 -0.000149914 -9.82975e-05 1.75315
0.48 0.015 -0.0187985 -0.000156679 -9.75315e-05 1.73862
0.485 0.015 -0.0186416 -0.000163324 -9.6732e-05 1.72356
0.49 0.015 -0.0184786 -0.000169836 -9.58995e-05 1.70797
0.495 0.015 -0.0183095 -0.000176203 -9.50349e-05 1.69186
0.5 0.015 -0.0181346 -0.000182415 -9.41388e-05 1.67525
0.505 0.015 -0.017954 -0.000188461 -9.3212e-05 1.65816
0.51 0.015 -0.0177678 -0.000194331 -9.22554e-05 1.64059
0.515 0.015 -0.0175763 -0.000200017 -9.127e-05 1.62257
0.52 0.015 -0.0173795 -0.00020551 -9.02565e-05 1.60411
0.525 0.015 -0.0171778 -0.000210803 -8.92161e-05 1.58522
0.53 0.015 -0.0169712 -0.000215889 -8.81497e-05 1.56592
0.535 0.015 -0.01676 -0.000220763 -8.70584e-05 1.54623
0.54 0.015 -0.0165444 -0.00022542 -8.59433e-05 1.52617
0.545 0.015 -0.0163245 -0.000229855 -8.48054e-05 1.50575
0.55 0.015 -0.0161007 -0.000234064 -8.36459e-05 1.485
0.555 0.015 -0.015873 -0.000238044 -8.24659e-05 1.46393
0.56 0.015 -0.0156418 -0.000241794 -8.12665e-05 1.44255
0.565 0.015 -0.0154073 -0.000245312 -8.0049e-05 1.4209
0.57 0.015 -0.0151695 -0.000248596 -7.88145e-05 1.39899
0.575 0.015 -0.0149289 -0.000251647 -7.75641e-05 1.37683
0.58 0.015 -0.0146856 -0.000254464 -7.62991e-05 1.35444
0.585 0.015 -0.0144397 -0.000257049 -7.50205e-05 1.33185
0.59 0.015 -0.0141916 -0.000259403 -7.37296e-05 1.30907
0.595 0.015 -0.0139415 -0.000261528 -7.24274e-05 1.28612
0.6 0.015 -0.0136895 -0.000263426 -7.11152e-05 1.26302
0.605 0.015 -0.0134358 -0.000265101 -6.97941e-05 1.23978
0.61 0.015 -0.0131808 -0.000266555 -6.84651e-05 1.21643
0.615 0.015 -0.0129245 -0.000267792 -6.71294e-05 1.19299
0.62 0.015 -0.0126672 -0.000268816 -6.57881e-05 1.16946
0.625 0.015 -0.0124091 -0.000269632 -6.44421e-05 1.14586
0.63 0.015 -0.0121503 -0.000270243 -6.30926e-05 1.12222
0.635 0.015 -0.0118911 -0.000270655 -6.17404e-05 1.09854
0.64 0.015 -0.0116316 -0.000270873 -6.03868e-05 1.07485
0.645 0.015 -0.011372 -0.000270901 -5.90324e-05 1.05116
0.65 0.015 -0.0111126 -0.000270746 -5.76784e-05 1.02748
0.655 0.015 -0.0108534 -0.000270412 -5.63257e-05 1.00383
0.66 0.015 -0.0105946 -0.000269906 -5.4975e-05 0.980217
0.665 0.015 -0.0103364 -0.000269231 -5.36272e-05 0.956663
0.67 0.015 -0.0100789 -0.000268395 -5.22833e-05 0.933178
0.675 0.015 -0.0098223 -0.000267402 -5.09439e-05 0.909774
0.68 0.015 -0.00956674 -0.000266258 -4.96098e-05 0.886465
0.685 0.015 -0.00931234 -0.000264968 -4.82818e-05 0.863261
0.69 0.015 -0.00905924 -0.000263538 -4.69607e-05 0.840175
0.695 0.015 -0.00880757 -0.000261972 -4.5647e-05 0.817217
0.7 0.015 -0.00855745 -0.000260275 -4.43414e-05 0.794399
0.705 0.015 -0.00830901 -0.000258454 -4.30446e-05 0.77173
0.71 0.015 -0.00806236 -0.000256511 -4.17573e-05 0.749222
0.715 0.015 -0.0078176 -0.000254451 -4.04799e-05 0.726883
0.72 0.015 -0.00757485 -0.000252279 -3.92132e-05 0.704723
0.725 0.015 -0.00733422 -0.000249998 -3.79575e-05 0.682752
0.73 0.015 -0.00709579 -0.000247613 -3.67135e-05 0.660978
0.735 0.015 -0.00685968 -0.000245127 -3.54817e-05 0.63941
0.74 0.015 -0.00662597 -0.000242542 -3.42625e-05 0.618055
0.745 0.015 -0.00639475 -0.000239862 -3.30566e-05 0.596923
0.75 0.015 -0.00616612 -0.00023709 -3.18642e-05 0.576022
0.755 0.015 -0.00594016 -0.000234227 -3.06859e-05 0.555358
0.76 0.015 -0.00571695 -0.000231276 -2.95221e-05 0.53494
0.765 0.015 -0.00549658 -0.000228239 -2.83734e-05 0.514775
0.77 0.015 -0.00527914 -0.000225117 -2.724e-05 0.494871
0.775 0.015 -0.00506469 -0.000221911 -2.61224e-05 0.475235
0.78 0.015 -0.00485332 -0.000218622 -2.5021e-05 0.455875
0.785 0.015 -0.00464511 -0.000215251 -2.39363e-05 0.436796
0.79 0.015 -0.00444014 -0.000211798 -2.28686e-05 0.418008
0.795 0.015 -0.00423849 -0.000208263 -2.18184e-05 0.399517
0.8 0.015 -0.00404023 -0.000204646 -2.07861e-05 0.38133
0.805 0.015 -0.00384545 -0.000200946 -1.97721e-05 0.363456