Title=" Lid Driven Flow"
VARIABLES="X","Y","U","V","psi","xi"
ZONE T= "BOX", I= 201, J=201, F=POINT
0 0 0 0 0.00346305 0
0.005 0 0 0 0 0
0.01 0 0 0 0 0
0.015 0 0 0 0 161.891
0.02 0 0 0 0 176.121
0.025 0 0 0 0 155.598
0.03 0 0 0 0 133.202
0.035 0 0 0 0 115.678
0.04 0 0 0 0 102.82
0.045 0 0 0 0 93.2847
0.05 0 0 0 0 85.962
0.055 0 0 0 0 80.1188
0.06 0 0 0 0 75.2968
0.065 0 0 0 0 71.2068
0.07 0 0 0 0 67.6611
0.075 0 0 0 0 64.5331
0.08 0 0 0 0 61.7342
0.085 0 0 0 0 59.2009
0.09 0 0 0 0 56.8862
0.095 0 0 0 0 54.7549
0.1 0 0 0 0 52.7799
0.105 0 0 0 0 50.9401
0.11 0 0 0 0 49.2188
0.115 0 0 0 0 47.6026
0.12 0 0 0 0 46.0805
0.125 0 0 0 0 44.6433
0.13 0 0 0 0 43.2836
0.135 0 0 0 0 41.9947
0.14 0 0 0 0 40.7711
0.145 0 0 0 0 39.6078
0.15 0 0 0 0 38.5004
0.155 0 0 0 0 37.4452
0.16 0 0 0 0 36.4385
0.165 0 0 0 0 35.4771
0.17 0 0 0 0 34.5582
0.175 0 0 0 0 33.6789
0.18 0 0 0 0 32.8368
0.185 0 0 0 0 32.0295
0.19 0 0 0 0 31.2548
0.195 0 0 0 0 30.5106
0.2 0 0 0 0 29.795
0.205 0 0 0 0 29.1061
0.21 0 0 0 0 28.4423
0.215 0 0 0 0 27.8019
0.22 0 0 0 0 27.1833
0.225 0 0 0 0 26.5851
0.23 0 0 0 0 26.006
0.235 0 0 0 0 25.4445
0.24 0 0 0 0 24.8995
0.245 0 0 0 0 24.3699
0.25 0 0 0 0 23.8545
0.255 0 0 0 0 23.3523
0.26 0 0 0 0 22.8623
0.265 0 0 0 0 22.3837
0.27 0 0 0 0 21.9155
0.275 0 0 0 0 21.457
0.28 0 0 0 0 21.0075
0.285 0 0 0 0 20.5661
0.29 0 0 0 0 20.1323
0.295 0 0 0 0 19.7055
0.3 0 0 0 0 19.285
0.305 0 0 0 0 18.8704
0.31 0 0 0 0 18.4612
0.315 0 0 0 0 18.057
0.32 0 0 0 0 17.6573
0.325 0 0 0 0 17.2617
0.33 0 0 0 0 16.87
0.335 0 0 0 0 16.4819
0.34 0 0 0 0 16.097
0.345 0 0 0 0 15.7152
0.35 0 0 0 0 15.3362
0.355 0 0 0 0 14.96
0.36 0 0 0 0 14.5862
0.365 0 0 0 0 14.2149
0.37 0 0 0 0 13.8459
0.375 0 0 0 0 13.4792
0.38 0 0 0 0 13.1147
0.385 0 0 0 0 12.7524
0.39 0 0 0 0 12.3924
0.395 0 0 0 0 12.0346
0.4 0 0 0 0 11.6791
0.405 0 0 0 0 11.326
0.41 0 0 0 0 10.9753
0.415 0 0 0 0 10.6272
0.42 0 0 0 0 10.2818
0.425 0 0 0 0 9.93926
0.43 0 0 0 0 9.59965
0.435 0 0 0 0 9.26318
0.44 0 0 0 0 8.93001
0.445 0 0 0 0 8.60033
0.45 0 0 0 0 8.27433
0.455 0 0 0 0 7.9522
0.46 0 0 0 0 7.63414
0.465 0 0 0 0 7.32036
0.47 0 0 0 0 7.01107
0.475 0 0 0 0 6.70648
0.48 0 0 0 0 6.40679
0.485 0 0 0 0 6.11222
0.49 0 0 0 0 5.82296
0.495 0 0 0 0 5.53921
0.5 0 0 0 0 5.26117
0.505 0 0 0 0 4.98902
0.51 0 0 0 0 4.72293
0.515 0 0 0 0 4.46307
0.52 0 0 0 0 4.2096
0.525 0 0 0 0 3.96266
0.53 0 0 0 0 3.72238
0.535 0 0 0 0 3.48887
0.54 0 0 0 0 3.26224
0.545 0 0 0 0 3.04257
0.55 0 0 0 0 2.82993
0.555 0 0 0 0 2.62437
0.56 0 0 0 0 2.42595
0.565 0 0 0 0 2.23467
0.57 0 0 0 0 2.05054
0.575 0 0 0 0 1.87356
0.58 0 0 0 0 1.70369
0.585 0 0 0 0 1.54089
0.59 0 0 0 0 1.38511
0.595 0 0 0 0 1.23628
0.6 0 0 0 0 1.09431
0.605 0 0 0 0 0.959093
0.61 0 0 0 0 0.830526
0.615 0 0 0 0 0.708483
0.62 0 0 0 0 0.592831
0.625 0 0 0 0 0.483425
0.63 0 0 0 0 0.380113
0.635 0 0 0 0 0.282734
0.64 0 0 0 0 0.191121
0.645 0 0 0 0 0.105099
0.65 0 0 0 0 0.0244911
0.655 0 0 0 0 -0.0508862
0.66 0 0 0 0 -0.121219
0.665 0 0 0 0 -0.186695
0.67 0 0 0 0 -0.247505
0.675 0 0 0 0 -0.303841
0.68 0 0 0 0 -0.355896
0.685 0 0 0 0 -0.403861
0.69 0 0 0 0 -0.447929
0.695 0 0 0 0 -0.488293
0.7 0 0 0 0 -0.525143
0.705 0 0 0 0 -0.558672
0.71 0 0 0 0 -0.589067
0.715 0 0 0 0 -0.616518
0.72 0 0 0 0 -0.64121
0.725 0 0 0 0 -0.663327
0.73 0 0 0 0 -0.683051
0.735 0 0 0 0 -0.700558
0.74 0 0 0 0 -0.716023
0.745 0 0 0 0 -0.729613
0.75 0 0 0 0 -0.74149
0.755 0 0 0 0 -0.751806
0.76 0 0 0 0 -0.760707
0.765 0 0 0 0 -0.768326
0.77 0 0 0 0 -0.774784
0.775 0 0 0 0 -0.780191
0.78 0 0 0 0 -0.784638
0.785 0 0 0 0 -0.788204
0.79 0 0 0 0 -0.790947
0.795 0 0 0 0 -0.792911
0.8 0 0 0 0 -0.794119
0.805 0 0 0 0 -0.794576
0.81 0 0 0 0 -0.794268
0.815 0 0 0 0 -0.793164
0.82 0 0 0 0 -0.791216
0.825 0 0 0 0 -0.788359
0.83 0 0 0 0 -0.784515
0.835 0 0 0 0 -0.779594
0.84 0 0 0 0 -0.773494
0.845 0 0 0 0 -0.766108
0.85 0 0 0 0 -0.757325
0.855 0 0 0 0 -0.747031
0.86 0 0 0 0 -0.735117
0.865 0 0 0 0 -0.721476
0.87 0 0 0 0 -0.706015
0.875 0 0 0 0 -0.68865
0.88 0 0 0 0 -0.669315
0.885 0 0 0 0 -0.647966
0.89 0 0 0 0 -0.62458
0.895 0 0 0 0 -0.599163
0.9 0 0 0 0 -0.57175
0.905 0 0 0 0 -0.542409
0.91 0 0 0 0 -0.511243
0.915 0 0 0 0 -0.478393
0.92 0 0 0 0 -0.444039
0.925 0 0 0 0 -0.408402
0.93 0 0 0 0 -0.371743
0.935 0 0 0 0 -0.334366
0.94 0 0 0 0 -0.296619
0.945 0 0 0 0 -0.25889
0.95 0 0 0 0 -0.22161
0.955 0 0 0 0 -0.185253
0.96 0 0 0 0 -0.150334
0.965 0 0 0 0 -0.117408
0.97 0 0 0 0 -0.0870703
0.975 0 0 0 0 -0.0599503
0.98 0 0 0 0 -0.0367051
0.985 0 0 0 0 -0.0179978
0.99 0 0 0 0 -0.0044482
0.995 0 0 0 0 0.00348404
1 0 0 0 0 0.00577404
0 0.005 0 0 0 0
0.005 0.005 0 0 0 0
0.01 0.005 0 0 0 73.7283
0.015 0.005 0 0 0 62.0754
0.02 0.005 0 0 0 45.737
0.025 0.005 0 0 0 33.9762
0.03 0.005 0 0 0 26.0776
0.035 0.005 0 0 0 20.6407
0.04 0.005 0 0 0 16.7254
0.045 0.005 0 0 0 13.7826
0.05 0.005 0 0 0 11.4945
0.055 0.005 0 0 0 9.67107
0.06 0.005 0 0 0 8.19272
0.065 0.005 0 0 0 6.98007
0.07 0.005 0 0 0 5.97757
0.075 0.005 0 0 0 5.1446
0.08 0.005 0 0 0 4.45029
0.085 0.005 0 0 0 3.87054
0.09 0.005 0 0 0 3.38613
0.095 0.005 0 0 0 2.98144
0.1 0.005 0 0 0 2.6437
0.105 0.005 0 0 0 2.36233
0.11 0.005 0 0 0 2.12855
0.115 0.005 0 0 0 1.93506
0.12 0.005 0 0 0 1.77574
0.125 0.005 0 0 0 1.64548
0.13 0.005 0 0 0 1.54001
0.135 0.005 0 0 0 1.45575
0.14 0.005 0 0 0 1.3897
0.145 0.005 0 0 0 1.33935
0.15 0.005 0 0 0 1.3026
0.155 0.005 0 0 0 1.2777
0.16 0.005 0 0 0 1.26318
0.165 0.005 0 0 0 1.25782
0.17 0.005 0 0 0 1.2606
0.175 0.005 0 0 0 1.27066
0.18 0.005 0 0 0 1.28728
0.185 0.005 0 0 0 1.30988
0.19 0.005 0 0 0 1.33796
0.195 0.005 0 0 0 1.37109
0.2 0.005 0 0 0 1.40894
0.205 0.005 0 0 0 1.4512
0.21 0.005 0 0 0 1.49763
0.215 0.005 0 0 0 1.54801
0.22 0.005 0 0 0 1.60216
0.225 0.005 0 0 0 1.65991
0.23 0.005 0 0 0 1.72113
0.235 0.005 0 0 0 1.78569
0.24 0.005 0 0 0 1.85346
0.245 0.005 0 0 0 1.92435
0.25 0.005 0 0 0 1.99824
0.255 0.005 0 0 0 2.07504
0.26 0.005 0 0 0 2.15464
0.265 0.005 0 0 0 2.23696
0.27 0.005 0 0 0 2.32189
0.275 0.005 0 0 0 2.40932
0.28 0.005 0 0 0 2.49916
0.285 0.005 0 0 0 2.59131
0.29 0.005 0 0 0 2.68564
0.295 0.005 0 0 0 2.78204
0.3 0.005 0 0 0 2.8804
0.305 0.005 0 0 0 2.98059
0.31 0.005 0 0 0 3.08247
0.315 0.005 0 0 0 3.18592
0.32 0.005 0 0 0 3.29078
0.325 0.005 0 0 0 3.39692
0.33 0.005 0 0 0 3.50417
0.335 0.005 0 0 0 3.61239
0.34 0.005 0 0 0 3.72139
0.345 0.005 0 0 0 3.83103
0.35 0.005 0 0 0 3.94111
0.355 0.005 0 0 0 4.05145
0.36 0.005 0 0 0 4.16188
0.365 0.005 0 0 0 4.27221
0.37 0.005 0 0 0 4.38222
0.375 0.005 0 0 0 4.49174
0.38 0.005 0 0 0 4.60055
0.385 0.005 0 0 0 4.70845
0.39 0.005 0 0 0 4.81523
0.395 0.005 0 0 0 4.92067
0.4 0.005 0 0 0 5.02458
0.405 0.005 0 0 0 5.12672
0.41 0.005 0 0 0 5.22688
0.415 0.005 0 0 0 5.32486
0.42 0.005 0 0 0 5.42042
0.425 0.005 0 0 0 5.51335
0.43 0.005 0 0 0 5.60344
0.435 0.005 0 0 0 5.69048
0.44 0.005 0 0 0 5.77424
0.445 0.005 0 0 0 5.85452
0.45 0.005 0 0 0 5.93111
0.455 0.005 0 0 0 6.00382
0.46 0.005 0 0 0 6.07243
0.465 0.005 0 0 0 6.13677
0.47 0.005 0 0 0 6.19663
0.475 0.005 0 0 0 6.25184
0.48 0.005 0 0 0 6.30222
0.485 0.005 0 0 0 6.34761
0.49 0.005 0 0 0 6.38784
0.495 0.005 0 0 0 6.42276
0.5 0.005 0 0 0 6.45223
0.505 0.005 0 0 0 6.47612
0.51 0.005 0 0 0 6.49431
0.515 0.005 0 0 0 6.50668
0.52 0.005 0 0 0 6.51315
0.525 0.005 0 0 0 6.51361
0.53 0.005 0 0 0 6.508
0.535 0.005 0 0 0 6.49625
0.54 0.005 0 0 0 6.47832
0.545 0.005 0 0 0 6.45418
0.55 0.005 0 0 0 6.42381
0.555 0.005 0 0 0 6.3872
0.56 0.005 0 0 0 6.34436
0.565 0.005 0 0 0 6.29533
0.57 0.005 0 0 0 6.24015
0.575 0.005 0 0 0 6.17888
0.58 0.005 0 0 0 6.1116
0.585 0.005 0 0 0 6.0384
0.59 0.005 0 0 0 5.95939
0.595 0.005 0 0 0 5.8747
0.6 0.005 0 0 0 5.78448
0.605 0.005 0 0 0 5.68887
0.61 0.005 0 0 0 5.58807
0.615 0.005 0 0 0 5.48226
0.62 0.005 0 0 0 5.37165
0.625 0.005 0 0 0 5.25647
0.63 0.005 0 0 0 5.13695
0.635 0.005 0 0 0 5.01335
0.64 0.005 0 0 0 4.88593
0.645 0.005 0 0 0 4.75496
0.65 0.005 0 0 0 4.62075
0.655 0.005 0 0 0 4.48358
0.66 0.005 0 0 0 4.34377
0.665 0.005 0 0 0 4.20164
0.67 0.005 0 0 0 4.0575
0.675 0.005 0 0 0 3.91171
0.68 0.005 0 0 0 3.76458
0.685 0.005 0 0 0 3.61646
0.69 0.005 0 0 0 3.46769
0.695 0.005 0 0 0 3.31862
0.7 0.005 0 0 0 3.16959
0.705 0.005 0 0 0 3.02093
0.71 0.005 0 0 0 2.87299
0.715 0.005 0 0 0 2.72609
0.72 0.005 0 0 0 2.58056
0.725 0.005 0 0 0 2.43672
0.73 0.005 0 0 0 2.29486
0.735 0.005 0 0 0 2.1553
0.74 0.005 0 0 0 2.01831
0.745 0.005 0 0 0 1.88416
0.75 0.005 0 0 0 1.75311
0.755 0.005 0 0 0 1.62541
0.76 0.005 0 0 0 1.50127
0.765 0.005 0 0 0 1.38091
0.77 0.005 0 0 0 1.26451
0.775 0.005 0 0 0 1.15225
0.78 0.005 0 0 0 1.04428
0.785 0.005 0 0 0 0.940737
0.79 0.005 0 0 0 0.841726
0.795 0.005 0 0 0 0.747347
0.8 0.005 0 0 0 0.657672
0.805 0.005 0 0 0 0.572757
0.81 0.005 0 0 0 0.492636
0.815 0.005 0 0 0 0.417328
0.82 0.005 0 0 0 0.34683
0.825 0.005 0 0 0 0.281123
0.83 0.005 0 0 0 0.220171
0.835 0.005 0 0 0 0.16392
0.84 0.005 0 0 0 0.112305
0.845 0.005 0 0 0 0.0652422
0.85 0.005 0 0 0 0.0226371
0.855 0.005 0 0 0 -0.0156177
0.86 0.005 0 0 0 -0.0496405
0.865 0.005 0 0 0 -0.0795596
0.87 0.005 0 0 0 -0.105512
0.875 0.005 0 0 0 -0.127643
0.88 0.005 0 0 0 -0.146104
0.885 0.005 0 0 0 -0.161053
0.89 0.005 0 0 0 -0.172652
0.895 0.005 0 0 0 -0.181068
0.9 0.005 0 0 0 -0.186472
0.905 0.005 0 0 0 -0.189037
0.91 0.005 0 0 0 -0.18894
0.915 0.005 0 0 0 -0.186361
0.92 0.005 0 0 0 -0.181486
0.925 0.005 0 0 0 -0.174503
0.93 0.005 0 0 0 -0.165607
0.935 0.005 0 0 0 -0.155003
0.94 0.005 0 0 0 -0.142904
0.945 0.005 0 0 0 -0.129541
0.95 0.005 0 0 0 -0.11516
0.955 0.005 0 0 0 -0.100037
0.96 0.005 0 0 0 -0.0844756
0.965 0.005 0 0 0 -0.0688244
0.97 0.005 0 0 0 -0.0534832
0.975 0.005 0 0 0 -0.0389176
0.98 0.005 0 0 0 -0.0256724
0.985 0.005 0 0 0 -0.0143795
0.99 0.005 0 0 0 -0.00574343
0.995 0.005 0 0 0 -0.000451934
1 0.005 0 0 0 0.00114247
0 0.01 0 0 0.00114247 0
0.005 0.01 0 0 0 -326.272
0.01 0.01 -0.180049 0.0775942 -0.000921604 -44.3992
0.015 0.01 -0.184881 -0.0349891 -0.000775942 9.53415
0.02 0.01 -0.156419 -0.0351239 -0.000571713 19.1195
0.025 0.01 -0.127591 -0.0245743 -0.000424703 18.9915
0.03 0.01 -0.104174 -0.0166695 -0.00032597 16.823
0.035 0.01 -0.0859184 -0.0116903 -0.000258008 14.4876
0.04 0.01 -0.0716326 -0.00857254 -0.000209068 12.4139
0.045 0.01 -0.0602786 -0.00653861 -0.000172283 10.6562
0.05 0.01 -0.0511056 -0.00513944 -0.000143682 9.18005
0.055 0.01 -0.0435927 -0.00412725 -0.000120888 7.93858
0.06 0.01 -0.0373756 -0.00336375 -0.000102409 6.89037
0.065 0.01 -0.0321928 -0.00276893 -8.72509e-05 6.00213
0.07 0.01 -0.0278509 -0.00229434 -7.47197e-05 5.24753
0.075 0.01 -0.024202 -0.00190911 -6.43074e-05 4.60552
0.08 0.01 -0.0211301 -0.00159257 -5.56286e-05 4.05904
0.085 0.01 -0.0185423 -0.0013302 -4.83818e-05 3.59403
0.09 0.01 -0.0163626 -0.00111137 -4.23266e-05 3.19877
0.095 0.01 -0.0145284 -0.000928036 -3.7268e-05 2.86337
0.1 0.01 -0.0129874 -0.000773895 -3.30462e-05 2.57945
0.105 0.01 -0.0116959 -0.000643933 -2.95291e-05 2.33984
0.11 0.01 -0.0106172 -0.000534084 -2.66069e-05 2.13845
0.115 0.01 -0.00972005 -0.000441015 -2.41882e-05 1.97005
0.12 0.01 -0.00897839 -0.000361969 -2.21967e-05 1.83015
0.125 0.01 -0.00837004 -0.000294656 -2.05685e-05 1.71493
0.13 0.01 -0.00787629 -0.000237163 -1.92501e-05 1.62111
0.135 0.01 -0.00748131 -0.000187892 -1.81969e-05 1.54588
0.14 0.01 -0.00717177 -0.000145502 -1.73712e-05 1.48686
0.145 0.01 -0.00693638 -0.000108871 -1.67418e-05 1.44201
0.15 0.01 -0.00676565 -7.70567e-05 -1.62825e-05 1.40959
0.155 0.01 -0.00665156 -4.92686e-05 -1.59713e-05 1.38812
0.16 0.01 -0.00658737 -2.48447e-05 -1.57898e-05 1.37634
0.165 0.01 -0.00656738 -3.22995e-06 -1.57228e-05 1.3732
0.17 0.01 -0.00658683 1.60397e-05 -1.57575e-05 1.37777
0.175 0.01 -0.00664168 3.33521e-05 -1.58832e-05 1.3893
0.18 0.01 -0.00672856 4.90304e-05 -1.6091e-05 1.40713
0.185 0.01 -0.00684461 6.33437e-05 -1.63735e-05 1.4307
0.19 0.01 -0.00698743 7.65149e-05 -1.67244e-05 1.45955
0.195 0.01 -0.00715499 8.87287e-05 -1.71386e-05 1.49326
0.2 0.01 -0.00734556 0.000100137 -1.76117e-05 1.53149
0.205 0.01 -0.00755768 0.000110864 -1.814e-05 1.57395
0.21 0.01 -0.00779009 0.000121011 -1.87203e-05 1.62038
0.215 0.01 -0.0080417 0.000130661 -1.93501e-05 1.67056
0.22 0.01 -0.00831157 0.00013988 -2.00269e-05 1.72427
0.225 0.01 -0.00859886 0.000148719 -2.07489e-05 1.78136
0.23 0.01 -0.00890282 0.00015722 -2.15141e-05 1.84167
0.235 0.01 -0.00922279 0.000165415 -2.23211e-05 1.90504
0.24 0.01 -0.00955812 0.000173327 -2.31683e-05 1.97134
0.245 0.01 -0.00990824 0.000180972 -2.40544e-05 2.04045
0.25 0.01 -0.0102726 0.000188363 -2.4978e-05 2.11225
0.255 0.01 -0.0106506 0.000195505 -2.5938e-05 2.18661
0.26 0.01 -0.0110418 0.000202402 -2.6933e-05 2.26343
0.265 0.01 -0.0114456 0.000209052 -2.7962e-05 2.3426
0.27 0.01 -0.0118615 0.000215453 -2.90236e-05 2.42398
0.275 0.01 -0.012289 0.000221598 -3.01165e-05 2.50749
0.28 0.01 -0.0127275 0.000227481 -3.12396e-05 2.59298
0.285 0.01 -0.0131764 0.000233092 -3.23913e-05 2.68035
0.29 0.01 -0.0136352 0.00023842 -3.35705e-05 2.76948
0.295 0.01 -0.0141032 0.000243454 -3.47755e-05 2.86023
0.3 0.01 -0.0145799 0.000248181 -3.6005e-05 2.95249
0.305 0.01 -0.0150646 0.000252588 -3.72573e-05 3.0461
0.31 0.01 -0.0155566 0.000256661 -3.85309e-05 3.14095
0.315 0.01 -0.0160552 0.000260387 -3.9824e-05 3.23688
0.32 0.01 -0.0165598 0.000263751 -4.11348e-05 3.33376
0.325 0.01 -0.0170695 0.000266738 -4.24615e-05 3.43143
0.33 0.01 -0.0175836 0.000269335 -4.38022e-05 3.52973
0.335 0.01 -0.0181013 0.000271527 -4.51548e-05 3.62852
0.34 0.01 -0.0186218 0.0002733 -4.65174e-05 3.72762
0.345 0.01 -0.0191442 0.00027464 -4.78878e-05 3.82688
0.35 0.01 -0.0196677 0.000275535 -4.92638e-05 3.92612
0.355 0.01 -0.0201915 0.000275971 -5.06432e-05 4.02517
0.36 0.01 -0.0207145 0.000275937 -5.20236e-05 4.12386
0.365 0.01 -0.0212359 0.000275422 -5.34026e-05 4.22201
0.37 0.01 -0.0217548 0.000274414 -5.47778e-05 4.31943
0.375 0.01 -0.0222701 0.000272905 -5.61467e-05 4.41596
0.38 0.01 -0.022781 0.000270885 -5.75069e-05 4.51139
0.385 0.01 -0.0232864 0.000268346 -5.88556e-05 4.60556
0.39 0.01 -0.0237854 0.000265282 -6.01903e-05 4.69826
0.395 0.01 -0.0242769 0.000261686 -6.15084e-05 4.78932
0.4 0.01 -0.02476 0.000257555 -6.28072e-05 4.87855
0.405 0.01 -0.0252337 0.000252884 -6.4084e-05 4.96576
0.41 0.01 -0.0256969 0.000247671 -6.53361e-05 5.05077
0.415 0.01 -0.0261486 0.000241916 -6.65607e-05 5.13339
0.42 0.01 -0.0265879 0.000235618 -6.77552e-05 5.21344
0.425 0.01 -0.0270138 0.000228779 -6.89169e-05 5.29073
0.43 0.01 -0.0274252 0.000221402 -7.00431e-05 5.36509
0.435 0.01 -0.0278211 0.000213491 -7.1131e-05 5.43635
0.44 0.01 -0.0282008 0.000205053 -7.2178e-05 5.50432
0.445 0.01 -0.028563 0.000196093 -7.31815e-05 5.56885
0.45 0.01 -0.0289071 0.000186621 -7.4139e-05 5.62977
0.455 0.01 -0.029232 0.000176647 -7.50478e-05 5.68692
0.46 0.01 -0.0295368 0.000166183 -7.59055e-05 5.74014
0.465 0.01 -0.0298207 0.000155241 -7.67096e-05 5.78929
0.47 0.01 -0.0300829 0.000143836 -7.74579e-05 5.83422
0.475 0.01 -0.0303226 0.000131985 -7.8148e-05 5.8748
0.48 0.01 -0.0305391 0.000119704 -7.87778e-05 5.9109
0.485 0.01 -0.0307315 0.000107014 -7.93451e-05 5.9424
0.49 0.01 -0.0308992 9.39354e-05 -7.9848e-05 5.96918
0.495 0.01 -0.0310416 8.04899e-05 -8.02845e-05 5.99115
0.5 0.01 -0.031158 6.67016e-05 -8.06529e-05 6.00819
0.505 0.01 -0.031248 5.2596e-05 -8.09516e-05 6.02023
0.51 0.01 -0.031311 3.82e-05 -8.11789e-05 6.02718
0.515 0.01 -0.0313466 2.35418e-05 -8.13336e-05 6.02899
0.52 0.01 -0.0313543 8.6512e-06 -8.14144e-05 6.02558
0.525 0.01 -0.0313339 -6.44061e-06 -8.14202e-05 6.01691
0.53 0.01 -0.0312851 -2.17011e-05 -8.135e-05 6.00295
0.535 0.01 -0.0312075 -3.70966e-05 -8.12032e-05 5.98368
0.54 0.01 -0.0311012 -5.2592e-05 -8.09791e-05 5.95906
0.545 0.01 -0.030966 -6.81511e-05 -8.06773e-05 5.92911
0.55 0.01 -0.0308019 -8.37367e-05 -8.02976e-05 5.89383
0.555 0.01 -0.0306089 -9.93104e-05 -7.984e-05 5.85325
0.56 0.01 -0.0303872 -0.000114833 -7.93046e-05 5.8074
0.565 0.01 -0.0301368 -0.000130265 -7.86917e-05 5.75633
0.57 0.01 -0.0298582 -0.000145566 -7.8002e-05 5.70008
0.575 0.01 -0.0295516 -0.000160694 -7.72361e-05 5.63875
0.58 0.01 -0.0292174 -0.000175608 -7.63951e-05 5.57241
0.585 0.01 -0.0288562 -0.000190267 -7.54801e-05 5.50116
0.59 0.01 -0.0284684 -0.000204628 -7.44924e-05 5.42511
0.595 0.01 -0.0280547 -0.00021865 -7.34338e-05 5.34439
0.6 0.01 -0.0276157 -0.000232291 -7.2306e-05 5.25912
0.605 0.01 -0.0271523 -0.000245511 -7.1111e-05 5.16946
0.61 0.01 -0.0266654 -0.000258269 -6.98509e-05 5.07557
0.615 0.01 -0.0261557 -0.000270525 -6.85283e-05 4.97761
0.62 0.01 -0.0256243 -0.000282242 -6.71457e-05 4.87578
0.625 0.01 -0.0250723 -0.000293381 -6.57059e-05 4.77026
0.63 0.01 -0.0245007 -0.000303908 -6.4212e-05 4.66127
0.635 0.01 -0.0239107 -0.000313787 -6.26669e-05 4.54901
0.64 0.01 -0.0233035 -0.000322988 -6.10741e-05 4.4337
0.645 0.01 -0.0226805 -0.000331479 -5.94371e-05 4.31559
0.65 0.01 -0.0220428 -0.000339234 -5.77594e-05 4.19491
0.655 0.01 -0.0213921 -0.000346226 -5.60448e-05 4.07192
0.66 0.01 -0.0207295 -0.000352433 -5.42972e-05 3.94686
0.665 0.01 -0.0200566 -0.000357835 -5.25205e-05 3.82001
0.67 0.01 -0.0193749 -0.000362416 -5.07188e-05 3.69162
0.675 0.01 -0.0186858 -0.000366161 -4.88964e-05 3.56196
0.68 0.01 -0.017991 -0.000369061 -4.70573e-05 3.43132
0.685 0.01 -0.0172919 -0.000371108 -4.52058e-05 3.29997
0.69 0.01 -0.0165901 -0.000372298 -4.33462e-05 3.16817
0.695 0.01 -0.0158871 -0.000372633 -4.14828e-05 3.03623
0.7 0.01 -0.0151845 -0.000372115 -3.96199e-05 2.9044
0.705 0.01 -0.0144839 -0.000370752 -3.77617e-05 2.77297
0.71 0.01 -0.0137867 -0.000368555 -3.59124e-05 2.6422
0.715 0.01 -0.0130944 -0.000365539 -3.40762e-05 2.51237
0.72 0.01 -0.0124086 -0.000361722 -3.22571e-05 2.38373
0.725 0.01 -0.0117307 -0.000357125 -3.0459e-05 2.25655
0.73 0.01 -0.011062 -0.000351774 -2.86858e-05 2.13108
0.735 0.01 -0.0104039 -0.000345697 -2.69413e-05 2.00755
0.74 0.01 -0.00975773 -0.000338926 -2.52289e-05 1.88621
0.745 0.01 -0.00912468 -0.000331495 -2.3552e-05 1.76726
0.75 0.01 -0.00850593 -0.000323441 -2.19139e-05 1.65093
0.755 0.01 -0.0079026 -0.000314804 -2.03176e-05 1.53742
0.76 0.01 -0.00731572 -0.000305625 -1.87659e-05 1.4269
0.765 0.01 -0.00674625 -0.000295949 -1.72614e-05 1.31957
0.77 0.01 -0.00619506 -0.000285821 -1.58064e-05 1.21558
0.775 0.01 -0.00566295 -0.000275287 -1.44032e-05 1.11507
0.78 0.01 -0.00515065 -0.000264396 -1.30535e-05 1.01819
0.785 0.01 -0.00465876 -0.000253197 -1.17592e-05 0.925037
0.79 0.01 -0.00418785 -0.000241738 -1.05216e-05 0.835728
0.795 0.01 -0.00373835 -0.000230068 -9.34184e-06 0.750346
0.8 0.01 -0.00331064 -0.000218238 -8.2209e-06 0.668963
0.805 0.01 -0.00290498 -0.000206294 -7.15946e-06 0.591633
0.81 0.01 -0.00252157 -0.000194285 -6.15796e-06 0.518399
0.815 0.01 -0.00216052 -0.000182258 -5.2166e-06 0.449286
0.82 0.01 -0.00182184 -0.000170256 -4.33537e-06 0.384303
0.825 0.01 -0.00150548 -0.000158324 -3.51403e-06 0.323448
0.83 0.01 -0.0012113 -0.000146503 -2.75213e-06 0.266702
0.835 0.01 -0.000939088 -0.000134832 -2.049e-06 0.214032
0.84 0.01 -0.000688561 -0.000123347 -1.40381e-06 0.165396
0.845 0.01 -0.000459371 -0.000112084 -8.15522e-07 0.120735
0.85 0.01 -0.000251108 -0.000101074 -2.82957e-07 0.0799817
0.855 0.01 -6.33031e-05 -9.03464e-05 1.95228e-07 0.0430553
0.86 0.01 0.000104565 -7.99268e-05 6.20513e-07 0.00986653
0.865 0.01 0.000253068 -6.9839e-05 9.94502e-07 -0.0196838
0.87 0.01 0.000382817 -6.01039e-05 1.31891e-06 -0.0457035
0.875 0.01 0.000494467 -5.07396e-05 1.59555e-06 -0.0683082
0.88 0.01 0.000588704 -4.17619e-05 1.82631e-06 -0.0876208
0.885 0.01 0.000666248 -3.31843e-05 2.01317e-06 -0.103771
0.89 0.01 0.000727842 -2.50183e-05 2.15816e-06 -0.116893
0.895 0.01 0.000774257 -1.72739e-05 2.26336e-06 -0.127128
0.9 0.01 0.000806284 -9.95974e-06 2.33091e-06 -0.134622
0.905 0.01 0.000824734 -3.08416e-06 2.36296e-06 -0.139526
0.91 0.01 0.000830438 3.34462e-06 2.36175e-06 -0.141995
0.915 0.01 0.000824248 9.31751e-06 2.32952e-06 -0.142189
0.92 0.01 0.000807039 1.48236e-05 2.26858e-06 -0.140275
0.925 0.01 0.000779714 1.9849e-05 2.18129e-06 -0.136426
0.93 0.01 0.000743208 2.43756e-05 2.0701e-06 -0.130821
0.935 0.01 0.000698501 2.83793e-05 1.93754e-06 -0.12365
0.94 0.01 0.000646623 3.18283e-05 1.78631e-06 -0.115112
0.945 0.01 0.000588677 3.46803e-05 1.61926e-06 -0.105422
0.95 0.01 0.00052585 3.68802e-05 1.43951e-06 -0.0948079
0.955 0.01 0.00045944 3.83561e-05 1.25046e-06 -0.0835207
0.96 0.01 0.000390885 3.90155e-05 1.05595e-06 -0.0718333
0.965 0.01 0.000321789 3.87407e-05 8.60306e-07 -0.0600461
0.97 0.01 0.000253961 3.73836e-05 6.6854e-07 -0.048489
0.975 0.01 0.000189446 3.47635e-05 4.86471e-07 -0.037521
0.98 0.01 0.000130546 3.06727e-05 3.20906e-07 -0.027522
0.985 0.01 7.97967e-05 2.49113e-05 1.79744e-07 -0.0188676
0.99 0.01 3.98432e-05 1.74095e-05 7.17929e-08 -0.0118662
0.995 0.01 1.30562e-05 8.60738e-06 5.64913e-09 -0.00661912
1 0.01 5.65426e-07 5.64913e-07 -1.42809e-08 -0.00273708
0 0.015 0 0 -0.000452341 0
0.005 0.015 0 0 0 -255.961
0.01 0.015 -0.152867 0.184881 -0.00180049 -79.2515
0.015 0.015 -0.206271 -0.0236298 -0.00184881 -16.6376
0.02 0.015 -0.204633 -0.0572891 -0.00156419 2.30767
0.025 0.015 -0.184617 -0.0522451 -0.00127591 7.9142
0.03 0.015 -0.161081 -0.0416731 -0.00104174 9.23505
0.035 0.015 -0.139015 -0.0325417 -0.000859184 9.10023
0.04 0.015 -0.119712 -0.0256398 -0.000716326 8.47665
0.045 0.015 -0.103213 -0.020527 -0.000602786 7.71725
0.05 0.015 -0.0892032 -0.0166858 -0.000511056 6.95531
0.055 0.015 -0.0773138 -0.01373 -0.000435927 6.2407
0.06 0.015 -0.0672105 -0.0113999 -0.000373756 5.5902
0.065 0.015 -0.0586125 -0.00952472 -0.000321928 5.00716
0.07 0.015 -0.0512883 -0.00799085 -0.000278509 4.4894
0.075 0.015 -0.0450468 -0.00672076 -0.00024202 4.03256
0.08 0.015 -0.0397293 -0.00565968 -0.000211301 3.63154
0.085 0.015 -0.0352028 -0.00476752 -0.000185423 3.2811
0.09 0.015 -0.0313549 -0.00401391 -0.000163626 2.97622
0.095 0.015 -0.0280903 -0.00337519 -0.000145284 2.71217
0.1 0.015 -0.0253274 -0.00283243 -0.000129874 2.48455
0.105 0.015 -0.0229968 -0.00237023 -0.000116959 2.2894
0.11 0.015 -0.021039 -0.00197587 -0.000106172 2.12307
0.115 0.015 -0.0194028 -0.00163876 -9.72005e-05 1.98233
0.12 0.015 -0.0180448 -0.00135 -8.97839e-05 1.86425
0.125 0.015 -0.0169274 -0.0011021 -8.37004e-05 1.76626
0.13 0.015 -0.0160189 -0.000888727 -7.87628e-05 1.68605
0.135 0.015 -0.0152918 -0.000704515 -7.48131e-05 1.62161
0.14 0.015 -0.014723 -0.000544926 -7.17176e-05 1.57115
0.145 0.015 -0.0142926 -0.000406112 -6.93638e-05 1.53313
0.15 0.015 -0.0139836 -0.000284816 -6.76565e-05 1.50619
0.155 0.015 -0.0137818 -0.000178281 -6.65156e-05 1.48913
0.16 0.015 -0.0136749 -8.4177e-05 -6.58736e-05 1.48093
0.165 0.015 -0.0136525 -5.34828e-07 -6.56738e-05 1.48071
0.17 0.015 -0.0137059 7.4304e-05 -6.58683e-05 1.48768
0.175 0.015 -0.0138276 0.000141735 -6.64168e-05 1.50117
0.18 0.015 -0.0140112 0.000202931 -6.72856e-05 1.5206
0.185 0.015 -0.0142514 0.000258873 -6.84461e-05 1.54547
0.19 0.015 -0.0145436 0.000310378 -6.98743e-05 1.57534
0.195 0.015 -0.0148838 0.00035813 -7.15498e-05 1.60983
0.2 0.015 -0.0152687 0.000402692 -7.34556e-05 1.64861
0.205 0.015 -0.0156955 0.000444529 -7.55767e-05 1.69137
0.21 0.015 -0.0161616 0.000484023 -7.79008e-05 1.73787
0.215 0.015 -0.0166648 0.000521484 -8.0417e-05 1.78788
0.22 0.015 -0.0172033 0.000557162 -8.31157e-05 1.84119
0.225 0.015 -0.0177753 0.000591258 -8.59886e-05 1.8976
0.23 0.015 -0.0183792 0.000623929 -8.90282e-05 1.95696
0.235 0.015 -0.0190137 0.000655298 -9.22278e-05 2.0191
0.24 0.015 -0.0196775 0.000685455 -9.55812e-05 2.08387
0.245 0.015 -0.0203692 0.000714468 -9.90824e-05 2.15113
0.25 0.015 -0.0210877 0.000742381 -0.000102726 2.22074
0.255 0.015 -0.0218319 0.000769223 -0.000106506 2.29258
0.26 0.015 -0.0226007 0.000795006 -0.000110418 2.36652
0.265 0.015 -0.0233928 0.00081973 -0.000114456 2.44241
0.27 0.015 -0.0242072 0.000843385 -0.000118615 2.52015
0.275 0.015 -0.0250427 0.000865952 -0.00012289 2.5996
0.28 0.015 -0.0258982 0.000887405 -0.000127275 2.68063
0.285 0.015 -0.0267725 0.000907711 -0.000131764 2.76311
0.29 0.015 -0.0276643 0.000926833 -0.000136352 2.84691
0.295 0.015 -0.0285725 0.00094473 -0.000141032 2.93189
0.3 0.015 -0.0294957 0.000961358 -0.000145799 3.01791
0.305 0.015 -0.0304325 0.000976671 -0.000150646 3.10485
0.31 0.015 -0.0313818 0.000990621 -0.000155566 3.19254
0.315 0.015 -0.0323419 0.00100316 -0.000160552 3.28086
0.32 0.015 -0.0333115 0.00101423 -0.000165598 3.36965
0.325 0.015 -0.0342891 0.0010238 -0.000170695 3.45875
0.33 0.015 -0.0352732 0.0010318 -0.000175836 3.54803
0.335 0.015 -0.0362621 0.00103819 -0.000181013 3.63731
0.34 0.015 -0.0372542 0.00104293 -0.000186218 3.72646
0.345 0.015 -0.038248 0.00104597 -0.000191442 3.81529
0.35 0.015 -0.0392416 0.00104726 -0.000196677 3.90367
0.355 0.015 -0.0402335 0.00104676 -0.000201915 3.99141
0.36 0.015 -0.0412218 0.00104445 -0.000207145 4.07837
0.365 0.015 -0.0422048 0.00104027 -0.000212359 4.16437
0.37 0.015 -0.0431806 0.00103421 -0.000217548 4.24926
0.375 0.015 -0.0441475 0.00102622 -0.000222701 4.33286
0.38 0.015 -0.0451036 0.00101629 -0.00022781 4.41502
0.385 0.015 -0.0460471 0.00100439 -0.000232864 4.49557
0.39 0.015 -0.0469761 0.000990508 -0.000237854 4.57436
0.395 0.015 -0.0478886 0.000974629 -0.000242769 4.65121
0.4 0.015 -0.048783 0.000956745 -0.0002476 4.72597
0.405 0.015 -0.0496572 0.000936849 -0.000252337 4.79848
0.41 0.015 -0.0505095 0.000914943 -0.000256969 4.86859
0.415 0.015 -0.051338 0.000891031 -0.000261486 4.93615
0.42 0.015 -0.0521408 0.000865122 -0.000265879 5.00101
0.425 0.015 -0.0529161 0.000837232 -0.000270138 5.06302
0.43 0.015 -0.0536623 0.000807379 -0.000274252 5.12204
0.435 0.015 -0.0543774 0.000775587 -0.000278212 5.17794
0.44 0.015 -0.0550597 0.000741886 -0.000282008 5.23059
0.445 0.015 -0.0557077 0.000706312 -0.000285631 5.27985
0.45 0.015 -0.0563196 0.000668902 -0.000289071 5.3256
0.455 0.015 -0.0568938 0.000629703 -0.00029232 5.36773
0.46 0.015 -0.0574288 0.000588765 -0.000295368 5.40613
0.465 0.015 -0.057923 0.000546143 -0.000298207 5.44069
0.47 0.015 -0.0583752 0.000501898 -0.00030083 5.47132
0.475 0.015 -0.0587838 0.000456097 -0.000303227 5.49792
0.48 0.015 -0.0591476 0.00040881 -0.000305391 5.52041
0.485 0.015 -0.0594654 0.000360114 -0.000307315 5.53871
0.49 0.015 -0.059736 0.000310092 -0.000308992 5.55275
0.495 0.015 -0.0599584 0.00025883 -0.000310416 5.56247
0.5 0.015 -0.0601315 0.000206419 -0.00031158 5.56781
0.505 0.015 -0.0602546 0.000152959 -0.00031248 5.56873
0.51 0.015 -0.0603267 9.85488e-05 -0.00031311 5.5652
0.515 0.015 -0.0603472 4.32972e-05 -0.000313466 5.55717
0.52 0.015 -0.0603156 -1.2685e-05 -0.000313543 5.54464
0.525 0.015 -0.0602312 -6.92818e-05 -0.000313339 5.52758
0.53 0.015 -0.0600938 -0.000126373 -0.000312851 5.506
0.535 0.015 -0.0599031 -0.000183834 -0.000312076 5.4799
0.54 0.015 -0.0596588 -0.000241537 -0.000311013 5.4493
0.545 0.015 -0.0593611 -0.000299351 -0.00030966 5.41422
0.55 0.015 -0.0590099 -0.000357139 -0.000308019 5.37469
0.555 0.015 -0.0586055 -0.000414764 -0.000306089 5.33076
0.56 0.015 -0.0581482 -0.000472086 -0.000303872 5.28248
0.565 0.015 -0.0576385 -0.000528962 -0.000301369 5.22991
0.57 0.015 -0.0570769 -0.000585246 -0.000298582 5.17313
0.575 0.015 -0.0564641 -0.000640793 -0.000295516 5.1122
0.58 0.015 -0.0558011 -0.000695456 -0.000292175 5.04723
0.585 0.015 -0.0550887 -0.000749088 -0.000288562 4.97831
0.59 0.015 -0.0543281 -0.000801541 -0.000284684 4.90555
0.595 0.015 -0.0535205 -0.000852669 -0.000280547 4.82907
0.6 0.015 -0.0526672 -0.000902327 -0.000276157 4.74898
0.605 0.015 -0.0517697 -0.000950373 -0.000271524 4.66543
0.61 0.015 -0.0508297 -0.000996665 -0.000266654 4.57855
0.615 0.015 -0.0498487 -0.00104107 -0.000261557 4.4885
0.62 0.015 -0.0488288 -0.00108344 -0.000256243 4.39543
0.625 0.015 -0.0477717 -0.00112367 -0.000250723 4.2995
0.63 0.015 -0.0466796 -0.00116162 -0.000245007 4.20089
0.635 0.015 -0.0455546 -0.00119718 -0.000239107 4.09978
0.64 0.015 -0.044399 -0.00123023 -0.000233035 3.99635
0.645 0.015 -0.0432151 -0.00126067 -0.000226805 3.89079
0.65 0.015 -0.0420053 -0.00128842 -0.000220429 3.7833
0.655 0.015 -0.0407721 -0.00131337 -0.000213921 3.67407
0.66 0.015 -0.0395182 -0.00133546 -0.000207295 3.56331
0.665 0.015 -0.0382461 -0.00135462 -0.000200566 3.45123
0.67 0.015 -0.0369585 -0.00137078 -0.000193749 3.33804
0.675 0.015 -0.0356581 -0.00138391 -0.000186859 3.22395
0.68 0.015 -0.0343478 -0.00139397 -0.00017991 3.10918
0.685 0.015 -0.0330302 -0.00140094 -0.000172919 2.99394
0.69 0.015 -0.0317082 -0.0014048 -0.000165901 2.87845
0.695 0.015 -0.0303846 -0.00140556 -0.000158871 2.76294
0.7 0.015 -0.0290621 -0.00140323 -0.000151845 2.64761
0.705 0.015 -0.0277436 -0.00139784 -0.000144839 2.53268
0.71 0.015 -0.0264318 -0.00138943 -0.000137867 2.41836
0.715 0.015 -0.0251294 -0.00137805 -0.000130945 2.30487
0.72 0.015 -0.023839 -0.00136376 -0.000124086 2.19241
0.725 0.015 -0.0225633 -0.00134664 -0.000117307 2.08117
0.73 0.015 -0.0213047 -0.00132678 -0.00011062 1.97137
0.735 0.015 -0.0200657 -0.00130428 -0.000104039 1.86319
0.74 0.015 -0.0188486 -0.00127925 -9.75774e-05 1.75681
0.745 0.015 -0.0176557 -0.0012518 -9.12468e-05 1.65242
0.75 0.015 -0.0164891 -0.00122208 -8.50594e-05 1.55018
0.755 0.015 -0.0153509 -0.00119022 -7.90261e-05 1.45025
0.76 0.015 -0.0142429 -0.00115636 -7.31572e-05 1.3528
0.765 0.015 -0.0131668 -0.00112067 -6.74625e-05 1.25796
0.77 0.015 -0.0121244 -0.0010833 -6.19506e-05 1.16587
0.775 0.015 -0.0111171 -0.00104441 -5.66296e-05 1.07665
0.78 0.015 -0.0101462 -0.00100419 -5.15065e-05 0.990425
0.785 0.015 -0.00921294 -0.000962799 -4.65877e-05 0.907285
0.79 0.015 -0.00831828 -0.000920415 -4.18785e-05 0.827328
0.795 0.015 -0.00746313 -0.000877214 -3.73835e-05 0.750632
0.8 0.015 -0.0066482 -0.000833372 -3.31064e-05 0.677266
0.805 0.015 -0.00587404 -0.000789063 -2.90498e-05 0.607286
0.81 0.015 -0.00514105 -0.000744459 -2.52157e-05 0.540739
0.815 0.015 -0.00444948 -0.00069973 -2.16052e-05 0.477656
0.82 0.015 -0.00379944 -0.000655038 -1.82184e-05 0.418059
0.825 0.015 -0.00319087 -0.000610542 -1.50548e-05 0.361958
0.83 0.015 -0.00262358 -0.000566394 -1.2113e-05 0.309351
0.835 0.015 -0.00209725 -0.000522739 -9.39087e-06 0.260225