Title=" Lid Driven Flow"
VARIABLES="X","Y","U","V","psi","xi"
ZONE T= "BOX", I= 201, J=201, F=POINT
0 0 0 0 0.00255985 0
0.005 0 0 0 0 0
0.01 0 0 0 0 0
0.015 0 0 0 0 161.891
0.02 0 0 0 0 176.124
0.025 0 0 0 0 155.609
0.03 0 0 0 0 133.224
0.035 0 0 0 0 115.71
0.04 0 0 0 0 102.861
0.045 0 0 0 0 93.3317
0.05 0 0 0 0 86.0116
0.055 0 0 0 0 80.1672
0.06 0 0 0 0 75.3399
0.065 0 0 0 0 71.241
0.07 0 0 0 0 67.683
0.075 0 0 0 0 64.5397
0.08 0 0 0 0 61.7231
0.085 0 0 0 0 59.17
0.09 0 0 0 0 56.834
0.095 0 0 0 0 54.6802
0.1 0 0 0 0 52.6819
0.105 0 0 0 0 50.8184
0.11 0 0 0 0 49.0732
0.115 0 0 0 0 47.4332
0.12 0 0 0 0 45.8876
0.125 0 0 0 0 44.4275
0.13 0 0 0 0 43.0455
0.135 0 0 0 0 41.735
0.14 0 0 0 0 40.4905
0.145 0 0 0 0 39.3073
0.15 0 0 0 0 38.1809
0.155 0 0 0 0 37.1074
0.16 0 0 0 0 36.0835
0.165 0 0 0 0 35.1058
0.17 0 0 0 0 34.1713
0.175 0 0 0 0 33.2774
0.18 0 0 0 0 32.4215
0.185 0 0 0 0 31.6011
0.19 0 0 0 0 30.814
0.195 0 0 0 0 30.0581
0.2 0 0 0 0 29.3314
0.205 0 0 0 0 28.6321
0.21 0 0 0 0 27.9582
0.215 0 0 0 0 27.3082
0.22 0 0 0 0 26.6805
0.225 0 0 0 0 26.0735
0.23 0 0 0 0 25.4859
0.235 0 0 0 0 24.9162
0.24 0 0 0 0 24.3632
0.245 0 0 0 0 23.8257
0.25 0 0 0 0 23.3026
0.255 0 0 0 0 22.7928
0.26 0 0 0 0 22.2953
0.265 0 0 0 0 21.8092
0.27 0 0 0 0 21.3336
0.275 0 0 0 0 20.8677
0.28 0 0 0 0 20.4106
0.285 0 0 0 0 19.9617
0.29 0 0 0 0 19.5203
0.295 0 0 0 0 19.0859
0.3 0 0 0 0 18.6577
0.305 0 0 0 0 18.2353
0.31 0 0 0 0 17.8183
0.315 0 0 0 0 17.4061
0.32 0 0 0 0 16.9985
0.325 0 0 0 0 16.595
0.33 0 0 0 0 16.1952
0.335 0 0 0 0 15.7991
0.34 0 0 0 0 15.4062
0.345 0 0 0 0 15.0164
0.35 0 0 0 0 14.6296
0.355 0 0 0 0 14.2455
0.36 0 0 0 0 13.8641
0.365 0 0 0 0 13.4852
0.37 0 0 0 0 13.109
0.375 0 0 0 0 12.7352
0.38 0 0 0 0 12.3639
0.385 0 0 0 0 11.9952
0.39 0 0 0 0 11.6291
0.395 0 0 0 0 11.2657
0.4 0 0 0 0 10.905
0.405 0 0 0 0 10.5472
0.41 0 0 0 0 10.1924
0.415 0 0 0 0 9.84078
0.42 0 0 0 0 9.49249
0.425 0 0 0 0 9.14771
0.43 0 0 0 0 8.80662
0.435 0 0 0 0 8.46943
0.44 0 0 0 0 8.13635
0.445 0 0 0 0 7.80758
0.45 0 0 0 0 7.48335
0.455 0 0 0 0 7.16389
0.46 0 0 0 0 6.84941
0.465 0 0 0 0 6.54014
0.47 0 0 0 0 6.23631
0.475 0 0 0 0 5.93813
0.48 0 0 0 0 5.64582
0.485 0 0 0 0 5.35958
0.49 0 0 0 0 5.07961
0.495 0 0 0 0 4.80611
0.5 0 0 0 0 4.53923
0.505 0 0 0 0 4.27916
0.51 0 0 0 0 4.02604
0.515 0 0 0 0 3.78
0.52 0 0 0 0 3.54117
0.525 0 0 0 0 3.30965
0.53 0 0 0 0 3.08553
0.535 0 0 0 0 2.86887
0.54 0 0 0 0 2.65972
0.545 0 0 0 0 2.45813
0.55 0 0 0 0 2.26409
0.555 0 0 0 0 2.07762
0.56 0 0 0 0 1.89868
0.565 0 0 0 0 1.72724
0.57 0 0 0 0 1.56324
0.575 0 0 0 0 1.4066
0.58 0 0 0 0 1.25725
0.585 0 0 0 0 1.11507
0.59 0 0 0 0 0.979941
0.595 0 0 0 0 0.851742
0.6 0 0 0 0 0.730325
0.605 0 0 0 0 0.615534
0.61 0 0 0 0 0.507206
0.615 0 0 0 0 0.405166
0.62 0 0 0 0 0.309235
0.625 0 0 0 0 0.219222
0.63 0 0 0 0 0.134935
0.635 0 0 0 0 0.0561759
0.64 0 0 0 0 -0.0172577
0.645 0 0 0 0 -0.0855699
0.65 0 0 0 0 -0.148967
0.655 0 0 0 0 -0.207656
0.66 0 0 0 0 -0.261844
0.665 0 0 0 0 -0.311739
0.67 0 0 0 0 -0.357545
0.675 0 0 0 0 -0.399469
0.68 0 0 0 0 -0.437713
0.685 0 0 0 0 -0.472476
0.69 0 0 0 0 -0.503957
0.695 0 0 0 0 -0.532351
0.7 0 0 0 0 -0.557848
0.705 0 0 0 0 -0.580636
0.71 0 0 0 0 -0.600899
0.715 0 0 0 0 -0.618815
0.72 0 0 0 0 -0.634557
0.725 0 0 0 0 -0.648292
0.73 0 0 0 0 -0.660181
0.735 0 0 0 0 -0.670376
0.74 0 0 0 0 -0.679022
0.745 0 0 0 0 -0.686255
0.75 0 0 0 0 -0.6922
0.755 0 0 0 0 -0.696973
0.76 0 0 0 0 -0.700677
0.765 0 0 0 0 -0.703402
0.77 0 0 0 0 -0.705229
0.775 0 0 0 0 -0.706221
0.78 0 0 0 0 -0.706432
0.785 0 0 0 0 -0.705901
0.79 0 0 0 0 -0.704652
0.795 0 0 0 0 -0.702699
0.8 0 0 0 0 -0.700041
0.805 0 0 0 0 -0.696667
0.81 0 0 0 0 -0.692554
0.815 0 0 0 0 -0.687671
0.82 0 0 0 0 -0.681978
0.825 0 0 0 0 -0.675426
0.83 0 0 0 0 -0.667963
0.835 0 0 0 0 -0.659533
0.84 0 0 0 0 -0.650078
0.845 0 0 0 0 -0.639539
0.85 0 0 0 0 -0.627861
0.855 0 0 0 0 -0.61499
0.86 0 0 0 0 -0.60088
0.865 0 0 0 0 -0.585492
0.87 0 0 0 0 -0.568796
0.875 0 0 0 0 -0.550773
0.88 0 0 0 0 -0.53142
0.885 0 0 0 0 -0.510745
0.89 0 0 0 0 -0.488774
0.895 0 0 0 0 -0.465549
0.9 0 0 0 0 -0.441134
0.905 0 0 0 0 -0.415611
0.91 0 0 0 0 -0.389081
0.915 0 0 0 0 -0.361671
0.92 0 0 0 0 -0.333526
0.925 0 0 0 0 -0.304819
0.93 0 0 0 0 -0.275741
0.935 0 0 0 0 -0.246512
0.94 0 0 0 0 -0.217374
0.945 0 0 0 0 -0.188593
0.95 0 0 0 0 -0.160461
0.955 0 0 0 0 -0.133299
0.96 0 0 0 0 -0.107448
0.965 0 0 0 0 -0.0832815
0.97 0 0 0 0 -0.0611957
0.975 0 0 0 0 -0.0416123
0.98 0 0 0 0 -0.0249717
0.985 0 0 0 0 -0.0117167
0.99 0 0 0 0 -0.00225661
0.995 0 0 0 0 0.00312089
1 0 0 0 0 0.00445278
0 0.005 0 0 0 0
0.005 0.005 0 0 0 0
0.01 0.005 0 0 0 73.7275
0.015 0.005 0 0 0 62.0505
0.02 0.005 0 0 0 45.6788
0.025 0.005 0 0 0 33.8981
0.03 0.005 0 0 0 26.0034
0.035 0.005 0 0 0 20.5931
0.04 0.005 0 0 0 16.7217
0.045 0.005 0 0 0 13.8329
0.05 0.005 0 0 0 11.6029
0.055 0.005 0 0 0 9.83719
0.06 0.005 0 0 0 8.41281
0.065 0.005 0 0 0 7.24838
0.07 0.005 0 0 0 6.28728
0.075 0.005 0 0 0 5.4885
0.08 0.005 0 0 0 4.82132
0.085 0.005 0 0 0 4.26208
0.09 0.005 0 0 0 3.79218
0.095 0.005 0 0 0 3.39675
0.1 0.005 0 0 0 3.06376
0.105 0.005 0 0 0 2.78337
0.11 0.005 0 0 0 2.54749
0.115 0.005 0 0 0 2.34942
0.12 0.005 0 0 0 2.18358
0.125 0.005 0 0 0 2.04532
0.13 0.005 0 0 0 1.93075
0.135 0.005 0 0 0 1.8366
0.14 0.005 0 0 0 1.76013
0.145 0.005 0 0 0 1.69902
0.15 0.005 0 0 0 1.65132
0.155 0.005 0 0 0 1.61539
0.16 0.005 0 0 0 1.58982
0.165 0.005 0 0 0 1.57344
0.17 0.005 0 0 0 1.56524
0.175 0.005 0 0 0 1.56436
0.18 0.005 0 0 0 1.57007
0.185 0.005 0 0 0 1.58176
0.19 0.005 0 0 0 1.59889
0.195 0.005 0 0 0 1.621
0.2 0.005 0 0 0 1.6477
0.205 0.005 0 0 0 1.67865
0.21 0.005 0 0 0 1.71353
0.215 0.005 0 0 0 1.7521
0.22 0.005 0 0 0 1.79412
0.225 0.005 0 0 0 1.83938
0.23 0.005 0 0 0 1.88769
0.235 0.005 0 0 0 1.93888
0.24 0.005 0 0 0 1.9928
0.245 0.005 0 0 0 2.04929
0.25 0.005 0 0 0 2.10823
0.255 0.005 0 0 0 2.16947
0.26 0.005 0 0 0 2.23288
0.265 0.005 0 0 0 2.29835
0.27 0.005 0 0 0 2.36575
0.275 0.005 0 0 0 2.43495
0.28 0.005 0 0 0 2.50583
0.285 0.005 0 0 0 2.57828
0.29 0.005 0 0 0 2.65216
0.295 0.005 0 0 0 2.72734
0.3 0.005 0 0 0 2.80371
0.305 0.005 0 0 0 2.88112
0.31 0.005 0 0 0 2.95944
0.315 0.005 0 0 0 3.03854
0.32 0.005 0 0 0 3.11827
0.325 0.005 0 0 0 3.1985
0.33 0.005 0 0 0 3.27907
0.335 0.005 0 0 0 3.35984
0.34 0.005 0 0 0 3.44065
0.345 0.005 0 0 0 3.52135
0.35 0.005 0 0 0 3.60178
0.355 0.005 0 0 0 3.68179
0.36 0.005 0 0 0 3.7612
0.365 0.005 0 0 0 3.83986
0.37 0.005 0 0 0 3.9176
0.375 0.005 0 0 0 3.99426
0.38 0.005 0 0 0 4.06966
0.385 0.005 0 0 0 4.14365
0.39 0.005 0 0 0 4.21604
0.395 0.005 0 0 0 4.28669
0.4 0.005 0 0 0 4.35541
0.405 0.005 0 0 0 4.42205
0.41 0.005 0 0 0 4.48644
0.415 0.005 0 0 0 4.54842
0.42 0.005 0 0 0 4.60783
0.425 0.005 0 0 0 4.66451
0.43 0.005 0 0 0 4.71833
0.435 0.005 0 0 0 4.76912
0.44 0.005 0 0 0 4.81674
0.445 0.005 0 0 0 4.86106
0.45 0.005 0 0 0 4.90195
0.455 0.005 0 0 0 4.93928
0.46 0.005 0 0 0 4.97293
0.465 0.005 0 0 0 5.00278
0.47 0.005 0 0 0 5.02874
0.475 0.005 0 0 0 5.05071
0.48 0.005 0 0 0 5.06859
0.485 0.005 0 0 0 5.08231
0.49 0.005 0 0 0 5.09179
0.495 0.005 0 0 0 5.09698
0.5 0.005 0 0 0 5.09782
0.505 0.005 0 0 0 5.09427
0.51 0.005 0 0 0 5.0863
0.515 0.005 0 0 0 5.0739
0.52 0.005 0 0 0 5.05704
0.525 0.005 0 0 0 5.03573
0.53 0.005 0 0 0 5.00999
0.535 0.005 0 0 0 4.97983
0.54 0.005 0 0 0 4.94529
0.545 0.005 0 0 0 4.90642
0.55 0.005 0 0 0 4.86327
0.555 0.005 0 0 0 4.81592
0.56 0.005 0 0 0 4.76444
0.565 0.005 0 0 0 4.70893
0.57 0.005 0 0 0 4.64947
0.575 0.005 0 0 0 4.5862
0.58 0.005 0 0 0 4.51922
0.585 0.005 0 0 0 4.44867
0.59 0.005 0 0 0 4.3747
0.595 0.005 0 0 0 4.29744
0.6 0.005 0 0 0 4.21706
0.605 0.005 0 0 0 4.13373
0.61 0.005 0 0 0 4.04762
0.615 0.005 0 0 0 3.95891
0.62 0.005 0 0 0 3.86779
0.625 0.005 0 0 0 3.77445
0.63 0.005 0 0 0 3.67908
0.635 0.005 0 0 0 3.5819
0.64 0.005 0 0 0 3.48309
0.645 0.005 0 0 0 3.38288
0.65 0.005 0 0 0 3.28147
0.655 0.005 0 0 0 3.17907
0.66 0.005 0 0 0 3.07589
0.665 0.005 0 0 0 2.97214
0.67 0.005 0 0 0 2.86803
0.675 0.005 0 0 0 2.76376
0.68 0.005 0 0 0 2.65955
0.685 0.005 0 0 0 2.55559
0.69 0.005 0 0 0 2.45207
0.695 0.005 0 0 0 2.3492
0.7 0.005 0 0 0 2.24714
0.705 0.005 0 0 0 2.1461
0.71 0.005 0 0 0 2.04623
0.715 0.005 0 0 0 1.94771
0.72 0.005 0 0 0 1.85069
0.725 0.005 0 0 0 1.75532
0.73 0.005 0 0 0 1.66174
0.735 0.005 0 0 0 1.5701
0.74 0.005 0 0 0 1.4805
0.745 0.005 0 0 0 1.39307
0.75 0.005 0 0 0 1.30791
0.755 0.005 0 0 0 1.22512
0.76 0.005 0 0 0 1.14478
0.765 0.005 0 0 0 1.06697
0.77 0.005 0 0 0 0.991753
0.775 0.005 0 0 0 0.919187
0.78 0.005 0 0 0 0.849319
0.785 0.005 0 0 0 0.782188
0.79 0.005 0 0 0 0.717822
0.795 0.005 0 0 0 0.656241
0.8 0.005 0 0 0 0.597458
0.805 0.005 0 0 0 0.541475
0.81 0.005 0 0 0 0.488288
0.815 0.005 0 0 0 0.437885
0.82 0.005 0 0 0 0.390248
0.825 0.005 0 0 0 0.34535
0.83 0.005 0 0 0 0.30316
0.835 0.005 0 0 0 0.26364
0.84 0.005 0 0 0 0.226746
0.845 0.005 0 0 0 0.192432
0.85 0.005 0 0 0 0.160644
0.855 0.005 0 0 0 0.131326
0.86 0.005 0 0 0 0.104419
0.865 0.005 0 0 0 0.079859
0.87 0.005 0 0 0 0.0575803
0.875 0.005 0 0 0 0.0375146
0.88 0.005 0 0 0 0.0195916
0.885 0.005 0 0 0 0.00373916
0.89 0.005 0 0 0 -0.0101163
0.895 0.005 0 0 0 -0.0220497
0.9 0.005 0 0 0 -0.0321373
0.905 0.005 0 0 0 -0.0404563
0.91 0.005 0 0 0 -0.0470852
0.915 0.005 0 0 0 -0.0521039
0.92 0.005 0 0 0 -0.055594
0.925 0.005 0 0 0 -0.0576391
0.93 0.005 0 0 0 -0.0583259
0.935 0.005 0 0 0 -0.0577446
0.94 0.005 0 0 0 -0.0559909
0.945 0.005 0 0 0 -0.0531671
0.95 0.005 0 0 0 -0.049385
0.955 0.005 0 0 0 -0.0447683
0.96 0.005 0 0 0 -0.0394572
0.965 0.005 0 0 0 -0.0336135
0.97 0.005 0 0 0 -0.0274274
0.975 0.005 0 0 0 -0.0211271
0.98 0.005 0 0 0 -0.0149903
0.985 0.005 0 0 0 -0.00935747
0.99 0.005 0 0 0 -0.00464219
0.995 0.005 0 0 0 -0.00131612
1 0.005 0 0 0 0.000202819
0 0.01 0 0 0.000202819 0
0.005 0.01 0 0 0 -326.272
0.01 0.01 -0.180023 0.0775631 -0.000921594 -44.4205
0.015 0.01 -0.184771 -0.0350609 -0.000775631 9.51045
0.02 0.01 -0.156216 -0.0351904 -0.000570985 19.1031
0.025 0.01 -0.127347 -0.0245943 -0.000423727 18.9837
0.03 0.01 -0.103972 -0.0166313 -0.000325042 16.8277
0.035 0.01 -0.0858378 -0.0116021 -0.000257414 14.5114
0.04 0.01 -0.0717357 -0.00845031 -0.000209021 12.464
0.045 0.01 -0.060604 -0.00639839 -0.000172911 10.7382
0.05 0.01 -0.0516704 -0.0049946 -0.000145037 9.29729
0.055 0.01 -0.0443964 -0.00398766 -0.000122965 8.09209
0.06 0.01 -0.0384051 -0.003236 -0.00010516 7.0792
0.065 0.01 -0.0334264 -0.0026569 -9.06047e-05 6.22385
0.07 0.01 -0.029262 -0.00219984 -7.85909e-05 5.49867
0.075 0.01 -0.0257618 -0.00183245 -6.86062e-05 4.88203
0.08 0.01 -0.0228099 -0.00153302 -6.02664e-05 4.35662
0.085 0.01 -0.0203145 -0.00128642 -5.32759e-05 3.9084
0.09 0.01 -0.0182019 -0.00108165 -4.74021e-05 3.52581
0.095 0.01 -0.0164121 -0.000910512 -4.24592e-05 3.19931
0.1 0.01 -0.0148958 -0.00076671 -3.82969e-05 2.92086
0.105 0.01 -0.0136121 -0.000645321 -3.4792e-05 2.68375
0.11 0.01 -0.0125271 -0.000542429 -3.18436e-05 2.48226
0.115 0.01 -0.0116122 -0.000454882 -2.93676e-05 2.31158
0.12 0.01 -0.0108434 -0.000380115 -2.72946e-05 2.16758
0.125 0.01 -0.0102006 -0.000316028 -2.55664e-05 2.04676
0.13 0.01 -0.00966669 -0.000260889 -2.41343e-05 1.94615
0.135 0.01 -0.00922731 -0.000213266 -2.29574e-05 1.86317
0.14 0.01 -0.00887022 -0.000171966 -2.20015e-05 1.79565
0.145 0.01 -0.00858505 -0.000135997 -2.12377e-05 1.74171
0.15 0.01 -0.00836299 -0.000104529 -2.06415e-05 1.69976
0.155 0.01 -0.00819654 -7.6867e-05 -2.01923e-05 1.66841
0.16 0.01 -0.00807931 -5.24291e-05 -1.98727e-05 1.6465
0.165 0.01 -0.00800584 -3.07262e-05 -1.96679e-05 1.63299
0.17 0.01 -0.00797148 -1.13474e-05 -1.95654e-05 1.62702
0.175 0.01 -0.00797223 6.05272e-06 -1.95544e-05 1.62784
0.18 0.01 -0.00800468 2.17645e-05 -1.96258e-05 1.63479
0.185 0.01 -0.00806588 3.60321e-05 -1.97719e-05 1.64731
0.19 0.01 -0.00815329 4.90602e-05 -1.99861e-05 1.66492
0.195 0.01 -0.00826472 6.1021e-05 -2.02625e-05 1.68718
0.2 0.01 -0.00839827 7.20585e-05 -2.05962e-05 1.71373
0.205 0.01 -0.00855226 8.22929e-05 -2.0983e-05 1.74423
0.21 0.01 -0.00872523 9.18245e-05 -2.14191e-05 1.7784
0.215 0.01 -0.0089159 0.000100737 -2.19012e-05 1.81599
0.22 0.01 -0.0091231 0.000109098 -2.24264e-05 1.85675
0.225 0.01 -0.00934581 0.000116965 -2.29921e-05 1.90048
0.23 0.01 -0.00958308 0.000124385 -2.3596e-05 1.94699
0.235 0.01 -0.00983406 0.000131393 -2.4236e-05 1.99611
0.24 0.01 -0.0100979 0.00013802 -2.49099e-05 2.04767
0.245 0.01 -0.010374 0.00014429 -2.56161e-05 2.10152
0.25 0.01 -0.0106615 0.000150219 -2.63528e-05 2.15752
0.255 0.01 -0.0109597 0.000155822 -2.71183e-05 2.21552
0.26 0.01 -0.0112681 0.000161108 -2.7911e-05 2.2754
0.265 0.01 -0.011586 0.000166083 -2.87294e-05 2.33701
0.27 0.01 -0.0119127 0.00017075 -2.95718e-05 2.40024
0.275 0.01 -0.0122477 0.000175109 -3.04369e-05 2.46495
0.28 0.01 -0.0125902 0.000179161 -3.13229e-05 2.53102
0.285 0.01 -0.0129397 0.000182903 -3.22285e-05 2.59832
0.29 0.01 -0.0132956 0.000186329 -3.3152e-05 2.66672
0.295 0.01 -0.0136571 0.000189436 -3.40918e-05 2.7361
0.3 0.01 -0.0140238 0.000192217 -3.50464e-05 2.80632
0.305 0.01 -0.0143948 0.000194666 -3.6014e-05 2.87725
0.31 0.01 -0.0147696 0.000196775 -3.69931e-05 2.94877
0.315 0.01 -0.0151474 0.000198537 -3.79818e-05 3.02073
0.32 0.01 -0.0155276 0.000199945 -3.89785e-05 3.093
0.325 0.01 -0.0159094 0.000200991 -3.99813e-05 3.16544
0.33 0.01 -0.0162922 0.000201668 -4.09885e-05 3.23792
0.335 0.01 -0.0166753 0.000201967 -4.19981e-05 3.31028
0.34 0.01 -0.0170578 0.000201883 -4.30082e-05 3.3824
0.345 0.01 -0.017439 0.000201408 -4.4017e-05 3.45411
0.35 0.01 -0.0178182 0.000200536 -4.50224e-05 3.52529
0.355 0.01 -0.0181947 0.000199263 -4.60224e-05 3.59578
0.36 0.01 -0.0185675 0.000197582 -4.70151e-05 3.66543
0.365 0.01 -0.0189361 0.000195491 -4.79984e-05 3.7341
0.37 0.01 -0.0192995 0.000192985 -4.89702e-05 3.80164
0.375 0.01 -0.019657 0.000190063 -4.99284e-05 3.86791
0.38 0.01 -0.0200078 0.000186722 -5.08709e-05 3.93275
0.385 0.01 -0.0203512 0.000182963 -5.17957e-05 3.99603
0.39 0.01 -0.0206863 0.000178786 -5.27007e-05 4.05759
0.395 0.01 -0.0210124 0.000174191 -5.35838e-05 4.1173
0.4 0.01 -0.0213287 0.000169183 -5.44428e-05 4.17501
0.405 0.01 -0.0216344 0.000163764 -5.52758e-05 4.23059
0.41 0.01 -0.0219289 0.000157941 -5.60807e-05 4.28389
0.415 0.01 -0.0222113 0.000151717 -5.68554e-05 4.33479
0.42 0.01 -0.0224809 0.000145102 -5.7598e-05 4.38316
0.425 0.01 -0.0227371 0.000138104 -5.83066e-05 4.42888
0.43 0.01 -0.0229791 0.000130732 -5.89793e-05 4.47181
0.435 0.01 -0.0232064 0.000122997 -5.96142e-05 4.51185
0.44 0.01 -0.0234182 0.000114912 -6.02095e-05 4.54888
0.445 0.01 -0.023614 0.000106489 -6.07636e-05 4.5828
0.45 0.01 -0.0237931 9.77447e-05 -6.12747e-05 4.61351
0.455 0.01 -0.0239551 8.86933e-05 -6.17413e-05 4.64091
0.46 0.01 -0.0240994 7.93521e-05 -6.21619e-05 4.66491
0.465 0.01 -0.0242255 6.97393e-05 -6.25351e-05 4.68544
0.47 0.01 -0.0243329 5.98741e-05 -6.28596e-05 4.70241
0.475 0.01 -0.0244213 4.97767e-05 -6.31341e-05 4.71577
0.48 0.01 -0.0244903 3.94685e-05 -6.33577e-05 4.72544
0.485 0.01 -0.0245396 2.89715e-05 -6.35291e-05 4.73139
0.49 0.01 -0.0245688 1.83091e-05 -6.36477e-05 4.73357
0.495 0.01 -0.0245777 7.50531e-06 -6.37126e-05 4.73193
0.5 0.01 -0.0245662 -3.41514e-06 -6.37231e-05 4.72646
0.505 0.01 -0.0245341 -1.44266e-05 -6.36787e-05 4.71713
0.51 0.01 -0.0244812 -2.5503e-05 -6.35792e-05 4.70394
0.515 0.01 -0.0244075 -3.66175e-05 -6.34241e-05 4.68688
0.52 0.01 -0.0243131 -4.77428e-05 -6.32133e-05 4.66597
0.525 0.01 -0.0241979 -5.88513e-05 -6.2947e-05 4.64121
0.53 0.01 -0.0240621 -6.99151e-05 -6.26252e-05 4.61264
0.535 0.01 -0.0239058 -8.09061e-05 -6.22482e-05 4.58029
0.54 0.01 -0.0237292 -9.1796e-05 -6.18165e-05 4.5442
0.545 0.01 -0.0235325 -0.000102557 -6.13306e-05 4.50443
0.55 0.01 -0.0233161 -0.00011316 -6.07913e-05 4.46104
0.555 0.01 -0.0230803 -0.000123578 -6.01994e-05 4.4141
0.56 0.01 -0.0228254 -0.000133783 -5.95559e-05 4.36369
0.565 0.01 -0.022552 -0.000143748 -5.88619e-05 4.30989
0.57 0.01 -0.0222605 -0.000153447 -5.81188e-05 4.25281
0.575 0.01 -0.0219515 -0.000162854 -5.73278e-05 4.19255
0.58 0.01 -0.0216256 -0.000171944 -5.64906e-05 4.12921
0.585 0.01 -0.0212833 -0.000180694 -5.56088e-05 4.06292
0.59 0.01 -0.0209254 -0.000189079 -5.46841e-05 3.9938
0.595 0.01 -0.0205525 -0.000197078 -5.37184e-05 3.92198
0.6 0.01 -0.0201654 -0.000204671 -5.27136e-05 3.84761
0.605 0.01 -0.0197649 -0.000211838 -5.1672e-05 3.77083
0.61 0.01 -0.0193518 -0.000218562 -5.05956e-05 3.69179
0.615 0.01 -0.0189269 -0.000224826 -4.94867e-05 3.61063
0.62 0.01 -0.0184911 -0.000230615 -4.83477e-05 3.52753
0.625 0.01 -0.0180453 -0.000235918 -4.71809e-05 3.44265
0.63 0.01 -0.0175904 -0.000240723 -4.59889e-05 3.35614
0.635 0.01 -0.0171273 -0.000245019 -4.4774e-05 3.26819
0.64 0.01 -0.0166569 -0.000248801 -4.3539e-05 3.17896
0.645 0.01 -0.0161803 -0.000252062 -4.22863e-05 3.08862
0.65 0.01 -0.0156983 -0.000254798 -4.10187e-05 2.99735
0.655 0.01 -0.015212 -0.000257009 -3.97386e-05 2.90533
0.66 0.01 -0.0147223 -0.000258693 -3.84489e-05 2.81272
0.665 0.01 -0.0142301 -0.000259854 -3.7152e-05 2.71971
0.67 0.01 -0.0137364 -0.000260496 -3.58506e-05 2.62646
0.675 0.01 -0.0132422 -0.000260623 -3.45473e-05 2.53314
0.68 0.01 -0.0127484 -0.000260245 -3.32446e-05 2.43994
0.685 0.01 -0.0122559 -0.000259371 -3.19451e-05 2.347
0.69 0.01 -0.0117656 -0.000258012 -3.06511e-05 2.25449
0.695 0.01 -0.0112784 -0.000256181 -2.93652e-05 2.16257
0.7 0.01 -0.0107951 -0.000253893 -2.80895e-05 2.0714
0.705 0.01 -0.0103166 -0.000251163 -2.68264e-05 1.98112
0.71 0.01 -0.00984361 -0.000248009 -2.55781e-05 1.89188
0.715 0.01 -0.00937693 -0.00024445 -2.43465e-05 1.80381
0.72 0.01 -0.00891728 -0.000240505 -2.31337e-05 1.71705
0.725 0.01 -0.00846536 -0.000236194 -2.19416e-05 1.63172
0.73 0.01 -0.00802181 -0.000231541 -2.07719e-05 1.54794
0.735 0.01 -0.00758725 -0.000226566 -1.96263e-05 1.46582
0.74 0.01 -0.00716224 -0.000221293 -1.85064e-05 1.38547
0.745 0.01 -0.00674733 -0.000215746 -1.74135e-05 1.30699
0.75 0.01 -0.00634299 -0.000209949 -1.6349e-05 1.23046
0.755 0.01 -0.00594966 -0.000203925 -1.53141e-05 1.15596
0.76 0.01 -0.00556776 -0.000197699 -1.43099e-05 1.08358
0.765 0.01 -0.00519763 -0.000191295 -1.33372e-05 1.01337
0.77 0.01 -0.00483958 -0.000184737 -1.2397e-05 0.945403
0.775 0.01 -0.0044939 -0.00017805 -1.14899e-05 0.879719
0.78 0.01 -0.00416079 -0.000171255 -1.06165e-05 0.816365
0.785 0.01 -0.00384046 -0.000164377 -9.77739e-06 0.755377
0.79 0.01 -0.00353303 -0.000157438 -8.9728e-06 0.696783
0.795 0.01 -0.00323862 -0.000150458 -8.20304e-06 0.640605
0.8 0.01 -0.00295729 -0.000143461 -7.46824e-06 0.586858
0.805 0.01 -0.00268906 -0.000136464 -6.76845e-06 0.535547
0.81 0.01 -0.00243393 -0.000129488 -6.10361e-06 0.486674
0.815 0.01 -0.00219184 -0.000122551 -5.47357e-06 0.440234
0.82 0.01 -0.00196273 -0.00011567 -4.8781e-06 0.396216
0.825 0.01 -0.00174649 -0.00010886 -4.31687e-06 0.354601
0.83 0.01 -0.00154298 -0.000102138 -3.78949e-06 0.315367
0.835 0.01 -0.00135203 -9.55164e-05 -3.29548e-06 0.278487
0.84 0.01 -0.00117346 -8.90087e-05 -2.83431e-06 0.243928
0.845 0.01 -0.00100705 -8.26263e-05 -2.40538e-06 0.211654
0.85 0.01 -0.000852576 -7.63799e-05 -2.00803e-06 0.181623
0.855 0.01 -0.000709777 -7.0279e-05 -1.64156e-06 0.153791
0.86 0.01 -0.000578386 -6.43319e-05 -1.30521e-06 0.12811
0.865 0.01 -0.000458115 -5.85461e-05 -9.98212e-07 0.104529
0.87 0.01 -0.000348665 -5.2928e-05 -7.19727e-07 0.0829939
0.875 0.01 -0.000249724 -4.74832e-05 -4.68905e-07 0.0634479
0.88 0.01 -0.000160968 -4.22165e-05 -2.44867e-07 0.0458325
0.885 0.01 -8.20646e-05 -3.7132e-05 -4.67113e-08 0.0300868
0.89 0.01 -1.26725e-05 -3.22333e-05 1.26482e-07 0.0161479
0.895 0.01 4.75576e-05 -2.75234e-05 2.75649e-07 0.00395113
0.9 0.01 9.89821e-05 -2.30054e-05 4.01743e-07 -0.00656981
0.905 0.01 0.000141965 -1.86822e-05 5.0573e-07 -0.0154831
0.91 0.01 0.000176876 -1.45569e-05 5.88591e-07 -0.0228588
0.915 0.01 0.000204096 -1.06335e-05 6.51324e-07 -0.028769
0.92 0.01 0.000224015 -6.91656e-06 6.94948e-07 -0.0332883
0.925 0.01 0.000237033 -3.41251e-06 7.20511e-07 -0.0364938
0.93 0.01 0.000243569 -1.29688e-07 7.29093e-07 -0.0384666
0.935 0.01 0.000244059 2.92071e-06 7.21825e-07 -0.0392917
0.94 0.01 0.000238966 5.72364e-06 6.99902e-07 -0.0390599
0.945 0.01 0.000228789 8.25899e-06 6.64603e-07 -0.0378686
0.95 0.01 0.000214067 1.05e-05 6.17325e-07 -0.0358239
0.955 0.01 0.000195396 1.24109e-05 5.59614e-07 -0.0330425
0.96 0.01 0.000173447 1.39446e-05 4.93224e-07 -0.0296547
0.965 0.01 0.00014898 1.50382e-05 4.20175e-07 -0.025807
0.97 0.01 0.000122874 1.56087e-05 3.42848e-07 -0.0216651
0.975 0.01 9.61568e-05 1.55469e-05 2.64092e-07 -0.0174173
0.98 0.01 7.00307e-05 1.47124e-05 1.8738e-07 -0.0132741
0.985 0.01 4.5903e-05 1.29353e-05 1.16969e-07 -0.00946253
0.99 0.01 2.53769e-05 1.00518e-05 5.80277e-08 -0.00620325
0.995 0.01 1.01483e-05 6.05629e-06 1.64513e-08 -0.00364683
1 0.01 1.64102e-06 1.64513e-06 -2.5354e-09 -0.00172014
0 0.015 0 0 -0.00131281 0
0.005 0.015 0 0 0 -255.981
0.01 0.015 -0.152803 0.184771 -0.00180023 -79.2803
0.015 0.015 -0.206099 -0.0238074 -0.00184771 -16.6473
0.02 0.015 -0.204375 -0.0574234 -0.00156216 2.33051
0.025 0.015 -0.184359 -0.0522439 -0.00127347 7.96142
0.03 0.015 -0.160939 -0.0415094 -0.00103972 9.29778
0.035 0.015 -0.139098 -0.0322362 -0.000858378 9.17489
0.04 0.015 -0.120106 -0.0252338 -0.000717357 8.5637
0.045 0.015 -0.103975 -0.0200654 -0.00060604 7.81896
0.05 0.015 -0.0903592 -0.0162075 -0.000516704 7.07419
0.055 0.015 -0.0788639 -0.0132653 -0.000443964 6.3786
0.06 0.015 -0.0691355 -0.01097 -0.000384051 5.74805
0.065 0.015 -0.0608798 -0.0091431 -0.000334264 5.1849
0.07 0.015 -0.0538566 -0.00766455 -0.000292619 4.6861
0.075 0.015 -0.0478707 -0.00645203 -0.000257618 4.24664
0.08 0.015 -0.0427623 -0.00544731 -0.000228099 3.86094
0.085 0.015 -0.0383996 -0.00460801 -0.000203145 3.52349
0.09 0.015 -0.0346732 -0.00390238 -0.000182018 3.22913
0.095 0.015 -0.0314914 -0.00330605 -0.00016412 2.97311
0.1 0.015 -0.0287773 -0.00279988 -0.000148957 2.75114
0.105 0.015 -0.0264656 -0.00236863 -0.000136121 2.55937
0.11 0.015 -0.0245013 -0.00199992 -0.000125271 2.39437
0.115 0.015 -0.0228373 -0.00168368 -0.000116122 2.25309
0.12 0.015 -0.0214339 -0.00141157 -0.000108434 2.13284
0.125 0.015 -0.0202569 -0.00117667 -0.000102005 2.03122
0.13 0.015 -0.0192773 -0.000973236 -9.66666e-05 1.94615
0.135 0.015 -0.0184702 -0.000796436 -9.22728e-05 1.87578
0.14 0.015 -0.0178144 -0.000642224 -8.87019e-05 1.81849
0.145 0.015 -0.0172915 -0.000507196 -8.58502e-05 1.77286
0.15 0.015 -0.0168861 -0.000388479 -8.36296e-05 1.73765
0.155 0.015 -0.0165847 -0.000283653 -8.19651e-05 1.71176
0.16 0.015 -0.0163759 -0.00019067 -8.07928e-05 1.69425
0.165 0.015 -0.0162496 -0.000107801 -8.00581e-05 1.68428
0.17 0.015 -0.0161975 -3.35802e-05 -7.97145e-05 1.68112
0.175 0.015 -0.0162121 3.32288e-05 -7.9722e-05 1.68413
0.18 0.015 -0.0162872 9.36734e-05 -8.00465e-05 1.69274
0.185 0.015 -0.0164172 0.000148638 -8.06585e-05 1.70646
0.19 0.015 -0.0165974 0.000198871 -8.15327e-05 1.72486
0.195 0.015 -0.0168236 0.000245 -8.2647e-05 1.74754
0.2 0.015 -0.0170922 0.000287557 -8.39825e-05 1.77416
0.205 0.015 -0.0173999 0.000326986 -8.55224e-05 1.80442
0.21 0.015 -0.017744 0.000363659 -8.72521e-05 1.83804
0.215 0.015 -0.0181219 0.000397888 -8.91588e-05 1.87478
0.22 0.015 -0.0185314 0.000429929 -9.12309e-05 1.9144
0.225 0.015 -0.0189704 0.000459996 -9.3458e-05 1.95671
0.23 0.015 -0.019437 0.000488263 -9.58307e-05 2.00152
0.235 0.015 -0.0199296 0.000514872 -9.83405e-05 2.04864
0.24 0.015 -0.0204465 0.000539936 -0.000100979 2.09791
0.245 0.015 -0.0209862 0.000563545 -0.00010374 2.14918
0.25 0.015 -0.0215473 0.000585769 -0.000106615 2.20229
0.255 0.015 -0.0221285 0.00060666 -0.000109597 2.25711
0.26 0.015 -0.0227283 0.000626256 -0.000112681 2.31349
0.265 0.015 -0.0233455 0.000644582 -0.00011586 2.3713
0.27 0.015 -0.0239788 0.000661654 -0.000119127 2.4304
0.275 0.015 -0.024627 0.000677477 -0.000122477 2.49067
0.28 0.015 -0.0252888 0.000692051 -0.000125902 2.55197
0.285 0.015 -0.0259628 0.000705369 -0.000129397 2.61418
0.29 0.015 -0.026648 0.000717418 -0.000132956 2.67716
0.295 0.015 -0.0273428 0.000728184 -0.000136571 2.74079
0.3 0.015 -0.0280462 0.000737647 -0.000140238 2.80494
0.305 0.015 -0.0287568 0.000745786 -0.000143948 2.86948
0.31 0.015 -0.0294732 0.000752578 -0.000147696 2.93427
0.315 0.015 -0.0301941 0.000757999 -0.000151474 2.99919
0.32 0.015 -0.0309181 0.000762026 -0.000155276 3.0641
0.325 0.015 -0.0316439 0.000764634 -0.000159095 3.12888
0.33 0.015 -0.0323701 0.0007658 -0.000162923 3.19339
0.335 0.015 -0.0330952 0.000765501 -0.000166753 3.2575
0.34 0.015 -0.0338179 0.000763716 -0.000170578 3.32107
0.345 0.015 -0.0345367 0.000760427 -0.00017439 3.38398
0.35 0.015 -0.0352501 0.000755615 -0.000178183 3.44608
0.355 0.015 -0.0359566 0.000749265 -0.000181947 3.50726
0.36 0.015 -0.0366549 0.000741366 -0.000185676 3.56737
0.365 0.015 -0.0373434 0.000731908 -0.000189361 3.62628
0.37 0.015 -0.0380207 0.000720885 -0.000192995 3.68388
0.375 0.015 -0.0386852 0.000708293 -0.000196571 3.74002
0.38 0.015 -0.0393356 0.000694134 -0.000200079 3.79459
0.385 0.015 -0.0399703 0.000678411 -0.000203513 3.84746
0.39 0.015 -0.0405879 0.000661132 -0.000206864 3.89851
0.395 0.015 -0.041187 0.00064231 -0.000210125 3.94762
0.4 0.015 -0.0417662 0.000621961 -0.000213287 3.99468
0.405 0.015 -0.0423241 0.000600104 -0.000216345 4.03957
0.41 0.015 -0.0428593 0.000576765 -0.000219289 4.08218
0.415 0.015 -0.0433704 0.000551971 -0.000222113 4.12242
0.42 0.015 -0.0438563 0.000525756 -0.00022481 4.16017
0.425 0.015 -0.0443156 0.000498158 -0.000227372 4.19535
0.43 0.015 -0.0447471 0.000469217 -0.000229792 4.22786
0.435 0.015 -0.0451497 0.000438979 -0.000232065 4.25761
0.44 0.015 -0.0455221 0.000407496 -0.000234183 4.28453
0.445 0.015 -0.0458635 0.00037482 -0.000236141 4.30853
0.45 0.015 -0.0461727 0.000341011 -0.000237932 4.32955
0.455 0.015 -0.0464487 0.000306132 -0.000239552 4.34753
0.46 0.015 -0.0466908 0.000270248 -0.000240995 4.3624
0.465 0.015 -0.0468981 0.000233431 -0.000242256 4.37411
0.47 0.015 -0.0470698 0.000195753 -0.00024333 4.38261
0.475 0.015 -0.0472052 0.000157294 -0.000244214 4.38788
0.48 0.015 -0.0473038 0.000118133 -0.000244904 4.38987
0.485 0.015 -0.0473651 7.83554e-05 -0.000245397 4.38856
0.49 0.015 -0.0473885 3.80474e-05 -0.000245689 4.38393
0.495 0.015 -0.0473737 -2.70091e-06 -0.000245779 4.37596
0.5 0.015 -0.0473204 -4.37973e-05 -0.000245663 4.36466
0.505 0.015 -0.0472285 -8.51472e-05 -0.000245342 4.35003
0.51 0.015 -0.0470979 -0.000126654 -0.000244813 4.33207
0.515 0.015 -0.0469284 -0.00016822 -0.000244077 4.3108
0.52 0.015 -0.0467203 -0.000209746 -0.000243133 4.28625
0.525 0.015 -0.0464736 -0.000251131 -0.000241981 4.25845
0.53 0.015 -0.0461886 -0.000292274 -0.000240623 4.22742
0.535 0.015 -0.0458657 -0.000333074 -0.000239059 4.19323
0.54 0.015 -0.0455053 -0.000373428 -0.000237293 4.15591
0.545 0.015 -0.0451079 -0.000413236 -0.000235327 4.11554
0.55 0.015 -0.0446741 -0.000452398 -0.000233162 4.07216
0.555 0.015 -0.0442047 -0.000490815 -0.000230804 4.02586
0.56 0.015 -0.0437004 -0.000528388 -0.000228256 3.97671
0.565 0.015 -0.0431621 -0.000565022 -0.000225522 3.92479
0.57 0.015 -0.0425907 -0.000600624 -0.000222607 3.8702
0.575 0.015 -0.0419874 -0.000635103 -0.000219517 3.81303
0.58 0.015 -0.0413532 -0.000668371 -0.000216257 3.75338
0.585 0.015 -0.0406893 -0.000700345 -0.000212834 3.69135
0.59 0.015 -0.0399969 -0.000730944 -0.000209255 3.62706
0.595 0.015 -0.0392775 -0.000760092 -0.000205526 3.56062
0.6 0.015 -0.0385323 -0.000787717 -0.000201656 3.49215
0.605 0.015 -0.0377629 -0.000813754 -0.000197651 3.42178
0.61 0.015 -0.0369707 -0.000838141 -0.000193519 3.34962
0.615 0.015 -0.0361573 -0.000860822 -0.000189271 3.27581
0.62 0.015 -0.0353243 -0.000881747 -0.000184913 3.20049
0.625 0.015 -0.0344733 -0.000900873 -0.000180454 3.12378
0.63 0.015 -0.033606 -0.000918161 -0.000175905 3.04582
0.635 0.015 -0.0327242 -0.00093358 -0.000171274 2.96676
0.64 0.015 -0.0318295 -0.000947106 -0.00016657 2.88673
0.645 0.015 -0.0309236 -0.00095872 -0.000161804 2.80587
0.65 0.015 -0.0300084 -0.000968412 -0.000156984 2.72433
0.655 0.015 -0.0290856 -0.000976176 -0.000152121 2.64224
0.66 0.015 -0.0281569 -0.000982016 -0.000147224 2.55975
0.665 0.015 -0.027224 -0.00098594 -0.000142302 2.477
0.67 0.015 -0.0262889 -0.000987964 -0.000137365 2.39412
0.675 0.015 -0.025353 -0.00098811 -0.000132423 2.31126
0.68 0.015 -0.0244182 -0.000986407 -0.000127485 2.22855
0.685 0.015 -0.0234862 -0.000982891 -0.00012256 2.14612
0.69 0.015 -0.0225584 -0.000977603 -0.000117657 2.0641
0.695 0.015 -0.0216366 -0.000970588 -0.000112785 1.98262
0.7 0.015 -0.0207223 -0.000961901 -0.000107952 1.90181
0.705 0.015 -0.019817 -0.000951597 -0.000103167 1.82178
0.71 0.015 -0.0189221 -0.00093974 -9.84368e-05 1.74266
0.715 0.015 -0.018039 -0.000926396 -9.37699e-05 1.66454
0.72 0.015 -0.0171691 -0.000911637 -8.91734e-05 1.58755
0.725 0.015 -0.0163136 -0.000895535 -8.46542e-05 1.51178
0.73 0.015 -0.0154737 -0.00087817 -8.02186e-05 1.43733
0.735 0.015 -0.0146505 -0.000859621 -7.5873e-05 1.36429
0.74 0.015 -0.0138451 -0.000839971 -7.16229e-05 1.29275
0.745 0.015 -0.0130585 -0.000819305 -6.74737e-05 1.22279
0.75 0.015 -0.0122915 -0.000797709 -6.34303e-05 1.15449
0.755 0.015 -0.0115449 -0.000775269 -5.9497e-05 1.08791
0.76 0.015 -0.0108196 -0.000752072 -5.56779e-05 1.02312
0.765 0.015 -0.0101162 -0.000728207 -5.19766e-05 0.960175
0.77 0.015 -0.0094353 -0.000703759 -4.83961e-05 0.89913
0.775 0.015 -0.00877736 -0.000678816 -4.49392e-05 0.840029
0.78 0.015 -0.00814283 -0.000653462 -4.16081e-05 0.78291
0.785 0.015 -0.00753209 -0.000627781 -3.84047e-05 0.727809
0.79 0.015 -0.00694541 -0.000601853 -3.53305e-05 0.674753
0.795 0.015 -0.00638299 -0.000575759 -3.23863e-05 0.623764
0.8 0.015 -0.00584499 -0.000549574 -2.9573e-05 0.574858
0.805 0.015 -0.00533146 -0.000523372 -2.68907e-05 0.528046
0.81 0.015 -0.00484242 -0.000497224 -2.43393e-05 0.483335
0.815 0.015 -0.00437781 -0.000471197 -2.19185e-05 0.440723
0.82 0.015 -0.0039375 -0.000445355 -1.96273e-05 0.400208
0.825 0.015 -0.00352132 -0.000419757 -1.74649e-05 0.361778