Title=" Lid Driven Flow"
VARIABLES="X","Y","U","V","psi","xi"
ZONE T= "BOX", I= 201, J=201, F=POINT
0 0 0 0 0.00342395 0
0.005 0 0 0 0 0
0.01 0 0 0 0 0
0.015 0 0 0 0 161.891
0.02 0 0 0 0 176.121
0.025 0 0 0 0 155.598
0.03 0 0 0 0 133.203
0.035 0 0 0 0 115.679
0.04 0 0 0 0 102.822
0.045 0 0 0 0 93.2866
0.05 0 0 0 0 85.9639
0.055 0 0 0 0 80.1205
0.06 0 0 0 0 75.298
0.065 0 0 0 0 71.2074
0.07 0 0 0 0 67.661
0.075 0 0 0 0 64.5321
0.08 0 0 0 0 61.7322
0.085 0 0 0 0 59.1978
0.09 0 0 0 0 56.8821
0.095 0 0 0 0 54.7497
0.1 0 0 0 0 52.7735
0.105 0 0 0 0 50.9326
0.11 0 0 0 0 49.2103
0.115 0 0 0 0 47.593
0.12 0 0 0 0 46.0698
0.125 0 0 0 0 44.6317
0.13 0 0 0 0 43.2711
0.135 0 0 0 0 41.9813
0.14 0 0 0 0 40.7569
0.145 0 0 0 0 39.5928
0.15 0 0 0 0 38.4848
0.155 0 0 0 0 37.4289
0.16 0 0 0 0 36.4216
0.165 0 0 0 0 35.4597
0.17 0 0 0 0 34.5403
0.175 0 0 0 0 33.6606
0.18 0 0 0 0 32.8181
0.185 0 0 0 0 32.0104
0.19 0 0 0 0 31.2354
0.195 0 0 0 0 30.491
0.2 0 0 0 0 29.7752
0.205 0 0 0 0 29.0862
0.21 0 0 0 0 28.4222
0.215 0 0 0 0 27.7817
0.22 0 0 0 0 27.163
0.225 0 0 0 0 26.5647
0.23 0 0 0 0 25.9855
0.235 0 0 0 0 25.424
0.24 0 0 0 0 24.879
0.245 0 0 0 0 24.3493
0.25 0 0 0 0 23.8339
0.255 0 0 0 0 23.3317
0.26 0 0 0 0 22.8417
0.265 0 0 0 0 22.3631
0.27 0 0 0 0 21.8949
0.275 0 0 0 0 21.4364
0.28 0 0 0 0 20.9868
0.285 0 0 0 0 20.5454
0.29 0 0 0 0 20.1116
0.295 0 0 0 0 19.6847
0.3 0 0 0 0 19.2642
0.305 0 0 0 0 18.8495
0.31 0 0 0 0 18.4402
0.315 0 0 0 0 18.0359
0.32 0 0 0 0 17.6361
0.325 0 0 0 0 17.2405
0.33 0 0 0 0 16.8487
0.335 0 0 0 0 16.4604
0.34 0 0 0 0 16.0754
0.345 0 0 0 0 15.6934
0.35 0 0 0 0 15.3143
0.355 0 0 0 0 14.9379
0.36 0 0 0 0 14.564
0.365 0 0 0 0 14.1925
0.37 0 0 0 0 13.8233
0.375 0 0 0 0 13.4564
0.38 0 0 0 0 13.0917
0.385 0 0 0 0 12.7292
0.39 0 0 0 0 12.369
0.395 0 0 0 0 12.011
0.4 0 0 0 0 11.6554
0.405 0 0 0 0 11.3021
0.41 0 0 0 0 10.9513
0.415 0 0 0 0 10.603
0.42 0 0 0 0 10.2575
0.425 0 0 0 0 9.91479
0.43 0 0 0 0 9.57507
0.435 0 0 0 0 9.23851
0.44 0 0 0 0 8.90527
0.445 0 0 0 0 8.57554
0.45 0 0 0 0 8.2495
0.455 0 0 0 0 7.92737
0.46 0 0 0 0 7.60933
0.465 0 0 0 0 7.2956
0.47 0 0 0 0 6.98638
0.475 0 0 0 0 6.6819
0.48 0 0 0 0 6.38234
0.485 0 0 0 0 6.08793
0.49 0 0 0 0 5.79887
0.495 0 0 0 0 5.51535
0.5 0 0 0 0 5.23757
0.505 0 0 0 0 4.9657
0.51 0 0 0 0 4.69994
0.515 0 0 0 0 4.44044
0.52 0 0 0 0 4.18735
0.525 0 0 0 0 3.94082
0.53 0 0 0 0 3.70098
0.535 0 0 0 0 3.46794
0.54 0 0 0 0 3.24181
0.545 0 0 0 0 3.02266
0.55 0 0 0 0 2.81056
0.555 0 0 0 0 2.60558
0.56 0 0 0 0 2.40774
0.565 0 0 0 0 2.21706
0.57 0 0 0 0 2.03356
0.575 0 0 0 0 1.85721
0.58 0 0 0 0 1.68799
0.585 0 0 0 0 1.52585
0.59 0 0 0 0 1.37074
0.595 0 0 0 0 1.22257
0.6 0 0 0 0 1.08127
0.605 0 0 0 0 0.946734
0.61 0 0 0 0 0.818843
0.615 0 0 0 0 0.697473
0.62 0 0 0 0 0.58249
0.625 0 0 0 0 0.473748
0.63 0 0 0 0 0.371091
0.635 0 0 0 0 0.274358
0.64 0 0 0 0 0.18338
0.645 0 0 0 0 0.0979824
0.65 0 0 0 0 0.0179844
0.655 0 0 0 0 -0.0567973
0.66 0 0 0 0 -0.12655
0.665 0 0 0 0 -0.191463
0.67 0 0 0 0 -0.251727
0.675 0 0 0 0 -0.307535
0.68 0 0 0 0 -0.359081
0.685 0 0 0 0 -0.406556
0.69 0 0 0 0 -0.450155
0.695 0 0 0 0 -0.490069
0.7 0 0 0 0 -0.526491
0.705 0 0 0 0 -0.559612
0.71 0 0 0 0 -0.589621
0.715 0 0 0 0 -0.616706
0.72 0 0 0 0 -0.641053
0.725 0 0 0 0 -0.662846
0.73 0 0 0 0 -0.682265
0.735 0 0 0 0 -0.699488
0.74 0 0 0 0 -0.714687
0.745 0 0 0 0 -0.728028
0.75 0 0 0 0 -0.739673
0.755 0 0 0 0 -0.749772
0.76 0 0 0 0 -0.75847
0.765 0 0 0 0 -0.765898
0.77 0 0 0 0 -0.772175
0.775 0 0 0 0 -0.77741
0.78 0 0 0 0 -0.781692
0.785 0 0 0 0 -0.785097
0.79 0 0 0 0 -0.787685
0.795 0 0 0 0 -0.789494
0.8 0 0 0 0 -0.790549
0.805 0 0 0 0 -0.790852
0.81 0 0 0 0 -0.79039
0.815 0 0 0 0 -0.789131
0.82 0 0 0 0 -0.787027
0.825 0 0 0 0 -0.784013
0.83 0 0 0 0 -0.780012
0.835 0 0 0 0 -0.774935
0.84 0 0 0 0 -0.768683
0.845 0 0 0 0 -0.761151
0.85 0 0 0 0 -0.752229
0.855 0 0 0 0 -0.741807
0.86 0 0 0 0 -0.729778
0.865 0 0 0 0 -0.716039
0.87 0 0 0 0 -0.700499
0.875 0 0 0 0 -0.683078
0.88 0 0 0 0 -0.663713
0.885 0 0 0 0 -0.642363
0.89 0 0 0 0 -0.619007
0.895 0 0 0 0 -0.593654
0.9 0 0 0 0 -0.566339
0.905 0 0 0 0 -0.537133
0.91 0 0 0 0 -0.506139
0.915 0 0 0 0 -0.473498
0.92 0 0 0 0 -0.439388
0.925 0 0 0 0 -0.404028
0.93 0 0 0 0 -0.367677
0.935 0 0 0 0 -0.330636
0.94 0 0 0 0 -0.293246
0.945 0 0 0 0 -0.255892
0.95 0 0 0 0 -0.218999
0.955 0 0 0 0 -0.183032
0.96 0 0 0 0 -0.148499
0.965 0 0 0 0 -0.115948
0.97 0 0 0 0 -0.0859634
0.975 0 0 0 0 -0.0591667
0.98 0 0 0 0 -0.0362051
0.985 0 0 0 0 -0.0177317
0.99 0 0 0 0 -0.00435713
0.995 0 0 0 0 0.00346624
1 0 0 0 0 0.00571611
0 0.005 0 0 0 0
0.005 0.005 0 0 0 0
0.01 0.005 0 0 0 73.7283
0.015 0.005 0 0 0 62.0743
0.02 0.005 0 0 0 45.7345
0.025 0.005 0 0 0 33.9729
0.03 0.005 0 0 0 26.0745
0.035 0.005 0 0 0 20.6387
0.04 0.005 0 0 0 16.7253
0.045 0.005 0 0 0 13.7849
0.05 0.005 0 0 0 11.4993
0.055 0.005 0 0 0 9.67834
0.06 0.005 0 0 0 8.2023
0.065 0.005 0 0 0 6.9917
0.07 0.005 0 0 0 5.99095
0.075 0.005 0 0 0 5.15939
0.08 0.005 0 0 0 4.46619
0.085 0.005 0 0 0 3.88727
0.09 0.005 0 0 0 3.40341
0.095 0.005 0 0 0 2.99905
0.1 0.005 0 0 0 2.66144
0.105 0.005 0 0 0 2.38004
0.11 0.005 0 0 0 2.14611
0.115 0.005 0 0 0 1.95236
0.12 0.005 0 0 0 1.79271
0.125 0.005 0 0 0 1.66206
0.13 0.005 0 0 0 1.55616
0.135 0.005 0 0 0 1.47144
0.14 0.005 0 0 0 1.40492
0.145 0.005 0 0 0 1.3541
0.15 0.005 0 0 0 1.31687
0.155 0.005 0 0 0 1.2915
0.16 0.005 0 0 0 1.27652
0.165 0.005 0 0 0 1.2707
0.17 0.005 0 0 0 1.27302
0.175 0.005 0 0 0 1.28264
0.18 0.005 0 0 0 1.29882
0.185 0.005 0 0 0 1.32099
0.19 0.005 0 0 0 1.34863
0.195 0.005 0 0 0 1.38134
0.2 0.005 0 0 0 1.41875
0.205 0.005 0 0 0 1.46058
0.21 0.005 0 0 0 1.50656
0.215 0.005 0 0 0 1.55649
0.22 0.005 0 0 0 1.61017
0.225 0.005 0 0 0 1.66744
0.23 0.005 0 0 0 1.72817
0.235 0.005 0 0 0 1.79221
0.24 0.005 0 0 0 1.85946
0.245 0.005 0 0 0 1.92979
0.25 0.005 0 0 0 2.0031
0.255 0.005 0 0 0 2.0793
0.26 0.005 0 0 0 2.15828
0.265 0.005 0 0 0 2.23995
0.27 0.005 0 0 0 2.32419
0.275 0.005 0 0 0 2.41092
0.28 0.005 0 0 0 2.50002
0.285 0.005 0 0 0 2.5914
0.29 0.005 0 0 0 2.68493
0.295 0.005 0 0 0 2.7805
0.3 0.005 0 0 0 2.878
0.305 0.005 0 0 0 2.97729
0.31 0.005 0 0 0 3.07825
0.315 0.005 0 0 0 3.18073
0.32 0.005 0 0 0 3.2846
0.325 0.005 0 0 0 3.38971
0.33 0.005 0 0 0 3.49591
0.335 0.005 0 0 0 3.60303
0.34 0.005 0 0 0 3.71091
0.345 0.005 0 0 0 3.81939
0.35 0.005 0 0 0 3.92828
0.355 0.005 0 0 0 4.03741
0.36 0.005 0 0 0 4.14659
0.365 0.005 0 0 0 4.25564
0.37 0.005 0 0 0 4.36435
0.375 0.005 0 0 0 4.47253
0.38 0.005 0 0 0 4.57998
0.385 0.005 0 0 0 4.6865
0.39 0.005 0 0 0 4.79187
0.395 0.005 0 0 0 4.89588
0.4 0.005 0 0 0 4.99834
0.405 0.005 0 0 0 5.09901
0.41 0.005 0 0 0 5.19769
0.415 0.005 0 0 0 5.29416
0.42 0.005 0 0 0 5.38821
0.425 0.005 0 0 0 5.47962
0.43 0.005 0 0 0 5.56818
0.435 0.005 0 0 0 5.65368
0.44 0.005 0 0 0 5.7359
0.445 0.005 0 0 0 5.81465
0.45 0.005 0 0 0 5.8897
0.455 0.005 0 0 0 5.96088
0.46 0.005 0 0 0 6.02797
0.465 0.005 0 0 0 6.09079
0.47 0.005 0 0 0 6.14916
0.475 0.005 0 0 0 6.20289
0.48 0.005 0 0 0 6.25182
0.485 0.005 0 0 0 6.29578
0.49 0.005 0 0 0 6.33461
0.495 0.005 0 0 0 6.36816
0.5 0.005 0 0 0 6.39631
0.505 0.005 0 0 0 6.41892
0.51 0.005 0 0 0 6.43587
0.515 0.005 0 0 0 6.44705
0.52 0.005 0 0 0 6.45238
0.525 0.005 0 0 0 6.45177
0.53 0.005 0 0 0 6.44514
0.535 0.005 0 0 0 6.43245
0.54 0.005 0 0 0 6.41364
0.545 0.005 0 0 0 6.3887
0.55 0.005 0 0 0 6.3576
0.555 0.005 0 0 0 6.32035
0.56 0.005 0 0 0 6.27696
0.565 0.005 0 0 0 6.22747
0.57 0.005 0 0 0 6.17192
0.575 0.005 0 0 0 6.11038
0.58 0.005 0 0 0 6.04293
0.585 0.005 0 0 0 5.96966
0.59 0.005 0 0 0 5.89068
0.595 0.005 0 0 0 5.80614
0.6 0.005 0 0 0 5.71616
0.605 0.005 0 0 0 5.62092
0.61 0.005 0 0 0 5.52059
0.615 0.005 0 0 0 5.41537
0.62 0.005 0 0 0 5.30546
0.625 0.005 0 0 0 5.19109
0.63 0.005 0 0 0 5.0725
0.635 0.005 0 0 0 4.94993
0.64 0.005 0 0 0 4.82365
0.645 0.005 0 0 0 4.69393
0.65 0.005 0 0 0 4.56107
0.655 0.005 0 0 0 4.42535
0.66 0.005 0 0 0 4.28709
0.665 0.005 0 0 0 4.1466
0.67 0.005 0 0 0 4.0042
0.675 0.005 0 0 0 3.86021
0.68 0.005 0 0 0 3.71497
0.685 0.005 0 0 0 3.56881
0.69 0.005 0 0 0 3.42207
0.695 0.005 0 0 0 3.27507
0.7 0.005 0 0 0 3.12817
0.705 0.005 0 0 0 2.98168
0.71 0.005 0 0 0 2.83594
0.715 0.005 0 0 0 2.69127
0.72 0.005 0 0 0 2.54799
0.725 0.005 0 0 0 2.40639
0.73 0.005 0 0 0 2.2668
0.735 0.005 0 0 0 2.12948
0.74 0.005 0 0 0 1.99471
0.745 0.005 0 0 0 1.86277
0.75 0.005 0 0 0 1.73389
0.755 0.005 0 0 0 1.60832
0.76 0.005 0 0 0 1.48626
0.765 0.005 0 0 0 1.36792
0.77 0.005 0 0 0 1.25349
0.775 0.005 0 0 0 1.14312
0.78 0.005 0 0 0 1.03697
0.785 0.005 0 0 0 0.935154
0.79 0.005 0 0 0 0.837793
0.795 0.005 0 0 0 0.744971
0.8 0.005 0 0 0 0.656761
0.805 0.005 0 0 0 0.573213
0.81 0.005 0 0 0 0.49436
0.815 0.005 0 0 0 0.420218
0.82 0.005 0 0 0 0.350783
0.825 0.005 0 0 0 0.286037
0.83 0.005 0 0 0 0.225941
0.835 0.005 0 0 0 0.170446
0.84 0.005 0 0 0 0.119484
0.845 0.005 0 0 0 0.072976
0.85 0.005 0 0 0 0.0308282
0.855 0.005 0 0 0 -0.00706352
0.86 0.005 0 0 0 -0.0408143
0.865 0.005 0 0 0 -0.0705489
0.87 0.005 0 0 0 -0.0964004
0.875 0.005 0 0 0 -0.11851
0.88 0.005 0 0 0 -0.137024
0.885 0.005 0 0 0 -0.152096
0.89 0.005 0 0 0 -0.163883
0.895 0.005 0 0 0 -0.172548
0.9 0.005 0 0 0 -0.178255
0.905 0.005 0 0 0 -0.181173
0.91 0.005 0 0 0 -0.181475
0.915 0.005 0 0 0 -0.179334
0.92 0.005 0 0 0 -0.174931
0.925 0.005 0 0 0 -0.168448
0.93 0.005 0 0 0 -0.160076
0.935 0.005 0 0 0 -0.150012
0.94 0.005 0 0 0 -0.138466
0.945 0.005 0 0 0 -0.125659
0.95 0.005 0 0 0 -0.111835
0.955 0.005 0 0 0 -0.0972577
0.96 0.005 0 0 0 -0.082226
0.965 0.005 0 0 0 -0.0670777
0.97 0.005 0 0 0 -0.0522025
0.975 0.005 0 0 0 -0.0380545
0.98 0.005 0 0 0 -0.0251652
0.985 0.005 0 0 0 -0.0141522
0.99 0.005 0 0 0 -0.00570616
0.995 0.005 0 0 0 -0.000505352
1 0.005 0 0 0 0.00109233
0 0.01 0 0 0.00109233 0
0.005 0.01 0 0 0 -326.272
0.01 0.01 -0.180048 0.0775929 -0.000921603 -44.4001
0.015 0.01 -0.184876 -0.0349922 -0.000775929 9.53314
0.02 0.01 -0.156411 -0.0351268 -0.000571681 19.1188
0.025 0.01 -0.127581 -0.0245751 -0.000424661 18.9912
0.03 0.01 -0.104166 -0.0166678 -0.000325931 16.8232
0.035 0.01 -0.0859151 -0.0116864 -0.000257983 14.4886
0.04 0.01 -0.0716374 -0.00856722 -0.000209067 12.4161
0.045 0.01 -0.060293 -0.00653254 -0.000172311 10.6597
0.05 0.01 -0.0511304 -0.00513319 -0.000143741 9.18515
0.055 0.01 -0.0436277 -0.00412126 -0.000120979 7.94523
0.06 0.01 -0.0374203 -0.0033583 -0.000102529 6.89852
0.065 0.01 -0.0322462 -0.00276419 -8.73962e-05 6.01169
0.07 0.01 -0.0279117 -0.00229038 -7.48868e-05 5.25833
0.075 0.01 -0.024269 -0.00190594 -6.44924e-05 4.61738
0.08 0.01 -0.0212021 -0.00159016 -5.58274e-05 4.07176
0.085 0.01 -0.0186179 -0.00132848 -4.85908e-05 3.60744
0.09 0.01 -0.0164408 -0.00111027 -4.25426e-05 3.21267
0.095 0.01 -0.0146082 -0.000927461 -3.74881e-05 2.87761
0.1 0.01 -0.013068 -0.000773762 -3.3268e-05 2.59387
0.105 0.01 -0.0117766 -0.000644161 -2.97505e-05 2.35433
0.11 0.01 -0.0106973 -0.0005346 -2.68264e-05 2.15289
0.115 0.01 -0.00979913 -0.000441753 -2.44045e-05 1.98434
0.12 0.01 -0.00905608 -0.000362874 -2.24088e-05 1.84423
0.125 0.01 -0.00844605 -0.00029568 -2.07757e-05 1.72874
0.13 0.01 -0.0079504 -0.000238268 -1.9452e-05 1.63459
0.135 0.01 -0.00755339 -0.000189047 -1.8393e-05 1.55901
0.14 0.01 -0.0072417 -0.000146684 -1.75615e-05 1.49961
0.145 0.01 -0.00700412 -0.000110061 -1.69262e-05 1.45435
0.15 0.01 -0.00683116 -7.82425e-05 -1.64609e-05 1.42152
0.155 0.01 -0.00671483 -5.04419e-05 -1.61437e-05 1.39963
0.16 0.01 -0.00664839 -2.60006e-05 -1.59565e-05 1.38742
0.165 0.01 -0.00662618 -4.3666e-06 -1.58837e-05 1.38384
0.17 0.01 -0.0066434 1.49218e-05 -1.59128e-05 1.38798
0.175 0.01 -0.00669605 3.22507e-05 -1.60329e-05 1.39907
0.18 0.01 -0.00678073 4.7942e-05 -1.62353e-05 1.41646
0.185 0.01 -0.00689459 6.22636e-05 -1.65123e-05 1.43959
0.19 0.01 -0.00703521 7.54379e-05 -1.68579e-05 1.46798
0.195 0.01 -0.00720055 8.76491e-05 -1.72667e-05 1.50124
0.2 0.01 -0.00738888 9.90487e-05 -1.77344e-05 1.53901
0.205 0.01 -0.00759873 0.000109761 -1.82572e-05 1.581
0.21 0.01 -0.00782882 0.000119888 -1.8832e-05 1.62694
0.215 0.01 -0.00807806 0.000129512 -1.94561e-05 1.67662
0.22 0.01 -0.0083455 0.000138699 -2.01271e-05 1.72983
0.225 0.01 -0.00863028 0.000147502 -2.0843e-05 1.78639
0.23 0.01 -0.00893166 0.000155961 -2.16021e-05 1.84616
0.235 0.01 -0.00924895 0.000164109 -2.24026e-05 1.90897
0.24 0.01 -0.00958151 0.00017197 -2.32432e-05 1.97469
0.245 0.01 -0.00992875 0.000179561 -2.41223e-05 2.0432
0.25 0.01 -0.0102901 0.000186893 -2.50388e-05 2.11438
0.255 0.01 -0.010665 0.000193973 -2.59913e-05 2.1881
0.26 0.01 -0.011053 0.000200805 -2.69785e-05 2.26425
0.265 0.01 -0.0114534 0.000207387 -2.79993e-05 2.34272
0.27 0.01 -0.0118659 0.000213718 -2.90524e-05 2.42339
0.275 0.01 -0.0122897 0.000219791 -3.01365e-05 2.50615
0.28 0.01 -0.0127244 0.000225598 -3.12503e-05 2.59088
0.285 0.01 -0.0131694 0.000231133 -3.23925e-05 2.67745
0.29 0.01 -0.0136242 0.000236382 -3.35616e-05 2.76576
0.295 0.01 -0.014088 0.000241337 -3.47563e-05 2.85566
0.3 0.01 -0.0145603 0.000245983 -3.5975e-05 2.94704
0.305 0.01 -0.0150405 0.000250309 -3.72161e-05 3.03975
0.31 0.01 -0.0155279 0.000254301 -3.84781e-05 3.13366
0.315 0.01 -0.0160217 0.000257944 -3.97592e-05 3.22864
0.32 0.01 -0.0165213 0.000261226 -4.10575e-05 3.32453
0.325 0.01 -0.0170259 0.000264131 -4.23714e-05 3.42118
0.33 0.01 -0.0175347 0.000266646 -4.36989e-05 3.51845
0.335 0.01 -0.018047 0.000268756 -4.50379e-05 3.61617
0.34 0.01 -0.018562 0.000270449 -4.63864e-05 3.71418
0.345 0.01 -0.0190788 0.00027171 -4.77424e-05 3.81233
0.35 0.01 -0.0195965 0.000272527 -4.91035e-05 3.91043
0.355 0.01 -0.0201143 0.000272887 -5.04677e-05 4.00832
0.36 0.01 -0.0206312 0.000272779 -5.18324e-05 4.10583
0.365 0.01 -0.0211464 0.000272192 -5.31955e-05 4.20278
0.37 0.01 -0.021659 0.000271115 -5.45544e-05 4.29898
0.375 0.01 -0.0221679 0.000269539 -5.59066e-05 4.39426
0.38 0.01 -0.0226722 0.000267455 -5.72498e-05 4.48844
0.385 0.01 -0.023171 0.000264856 -5.85812e-05 4.58134
0.39 0.01 -0.0236632 0.000261734 -5.98984e-05 4.67275
0.395 0.01 -0.024148 0.000258086 -6.11986e-05 4.76252
0.4 0.01 -0.0246242 0.000253906 -6.24792e-05 4.85043
0.405 0.01 -0.0250908 0.000249191 -6.37377e-05 4.93633
0.41 0.01 -0.025547 0.000243939 -6.49712e-05 5.02001
0.415 0.01 -0.0259917 0.000238149 -6.61771e-05 5.10129
0.42 0.01 -0.0264238 0.000231822 -6.73527e-05 5.18
0.425 0.01 -0.0268425 0.00022496 -6.84953e-05 5.25596
0.43 0.01 -0.0272468 0.000217566 -6.96023e-05 5.32898
0.435 0.01 -0.0276356 0.000209645 -7.0671e-05 5.39891
0.44 0.01 -0.028008 0.000201202 -7.16988e-05 5.46556
0.445 0.01 -0.0283631 0.000192246 -7.26831e-05 5.52876
0.45 0.01 -0.0287001 0.000182784 -7.36213e-05 5.58837
0.455 0.01 -0.0290179 0.000172828 -7.4511e-05 5.64422
0.46 0.01 -0.0293157 0.00016239 -7.53497e-05 5.69616
0.465 0.01 -0.0295927 0.000151482 -7.61349e-05 5.74405
0.47 0.01 -0.029848 0.00014012 -7.68645e-05 5.78774
0.475 0.01 -0.030081 0.00012832 -7.75362e-05 5.82711
0.48 0.01 -0.0302908 0.0001161 -7.81478e-05 5.86202
0.485 0.01 -0.0304767 0.00010348 -7.86972e-05 5.89235
0.49 0.01 -0.0306381 9.04808e-05 -7.91826e-05 5.91801
0.495 0.01 -0.0307744 7.71246e-05 -7.96021e-05 5.93888
0.5 0.01 -0.0308849 6.34357e-05 -7.99539e-05 5.95487
0.505 0.01 -0.0309691 4.94396e-05 -8.02365e-05 5.9659
0.51 0.01 -0.0310266 3.51633e-05 -8.04484e-05 5.97189
0.515 0.01 -0.0310569 2.06353e-05 -8.05882e-05 5.97278
0.52 0.01 -0.0310597 5.88531e-06 -8.06548e-05 5.96851
0.525 0.01 -0.0310345 -9.05541e-06 -8.06471e-05 5.95903
0.53 0.01 -0.0309813 -2.41544e-05 -8.05643e-05 5.94432
0.535 0.01 -0.0308997 -3.93779e-05 -8.04056e-05 5.92436
0.54 0.01 -0.0307896 -5.46911e-05 -8.01706e-05 5.89912
0.545 0.01 -0.030651 -7.00579e-05 -7.98588e-05 5.86861
0.55 0.01 -0.0304838 -8.54413e-05 -7.94701e-05 5.83284
0.555 0.01 -0.0302882 -0.000100803 -7.90045e-05 5.79185
0.56 0.01 -0.0300642 -0.000116105 -7.84621e-05 5.74565
0.565 0.01 -0.0298121 -0.000131307 -7.78435e-05 5.69432
0.57 0.01 -0.029532 -0.00014637 -7.71491e-05 5.63789
0.575 0.01 -0.0292245 -0.000161252 -7.63798e-05 5.57646
0.58 0.01 -0.0288899 -0.000175913 -7.55367e-05 5.51011
0.585 0.01 -0.0285286 -0.000190311 -7.46208e-05 5.43893
0.59 0.01 -0.0281413 -0.000204407 -7.36336e-05 5.36304
0.595 0.01 -0.0277285 -0.000218158 -7.25768e-05 5.28256
0.6 0.01 -0.0272911 -0.000231525 -7.14521e-05 5.19763
0.605 0.01 -0.0268297 -0.000244467 -7.02616e-05 5.10839
0.61 0.01 -0.0263452 -0.000256944 -6.90075e-05 5.01502
0.615 0.01 -0.0258385 -0.00026892 -6.76922e-05 4.91768
0.62 0.01 -0.0253106 -0.000280355 -6.63184e-05 4.81654
0.625 0.01 -0.0247626 -0.000291215 -6.48887e-05 4.71182
0.63 0.01 -0.0241955 -0.000301464 -6.34063e-05 4.6037
0.635 0.01 -0.0236105 -0.00031107 -6.18742e-05 4.4924
0.64 0.01 -0.0230088 -0.000320002 -6.02957e-05 4.37816
0.645 0.01 -0.0223917 -0.00032823 -5.86742e-05 4.26118
0.65 0.01 -0.0217606 -0.00033573 -5.70134e-05 4.14173
0.655 0.01 -0.0211167 -0.000342475 -5.5317e-05 4.02003
0.66 0.01 -0.0204614 -0.000348446 -5.35887e-05 3.89635
0.665 0.01 -0.0197963 -0.000353624 -5.18326e-05 3.77095
0.67 0.01 -0.0191227 -0.000357992 -5.00525e-05 3.64407
0.675 0.01 -0.0184421 -0.000361539 -4.82527e-05 3.516
0.68 0.01 -0.0177561 -0.000364255 -4.64372e-05 3.38701
0.685 0.01 -0.0170661 -0.000366134 -4.46102e-05 3.25735
0.69 0.01 -0.0163737 -0.000367175 -4.27759e-05 3.12731
0.695 0.01 -0.0156805 -0.000367377 -4.09385e-05 2.99715
0.7 0.01 -0.0149878 -0.000366745 -3.91022e-05 2.86715
0.705 0.01 -0.0142972 -0.000365289 -3.72711e-05 2.73758
0.71 0.01 -0.0136103 -0.000363018 -3.54493e-05 2.60871
0.715 0.01 -0.0129284 -0.000359948 -3.36409e-05 2.48079
0.72 0.01 -0.012253 -0.000356099 -3.18499e-05 2.35408
0.725 0.01 -0.0115856 -0.000351491 -3.008e-05 2.22883
0.73 0.01 -0.0109274 -0.00034615 -2.8335e-05 2.10529
0.735 0.01 -0.0102797 -0.000340105 -2.66185e-05 1.98369
0.74 0.01 -0.0096439 -0.000333386 -2.49339e-05 1.86425
0.745 0.01 -0.0090211 -0.000326028 -2.32846e-05 1.7472
0.75 0.01 -0.00841246 -0.000318067 -2.16737e-05 1.63274
0.755 0.01 -0.00781905 -0.000309542 -2.0104e-05 1.52106
0.76 0.01 -0.00724187 -0.000300495 -1.85783e-05 1.41235
0.765 0.01 -0.00668185 -0.000290968 -1.70991e-05 1.30677
0.77 0.01 -0.00613983 -0.000281005 -1.56686e-05 1.20448
0.775 0.01 -0.00561658 -0.000270653 -1.4289e-05 1.10562
0.78 0.01 -0.00511278 -0.000259958 -1.29621e-05 1.01032
0.785 0.01 -0.00462905 -0.000248968 -1.16894e-05 0.918692
0.79 0.01 -0.0041659 -0.000237729 -1.04724e-05 0.830836
0.795 0.01 -0.00372375 -0.00022629 -9.31214e-06 0.746835
0.8 0.01 -0.00330296 -0.000214698 -8.20951e-06 0.666755
0.805 0.01 -0.00290379 -0.000203001 -7.16516e-06 0.590651
0.81 0.01 -0.00252641 -0.000191243 -6.1795e-06 0.518561
0.815 0.01 -0.00217093 -0.000179471 -5.25272e-06 0.450508
0.82 0.01 -0.00183735 -0.000167726 -4.38479e-06 0.386501
0.825 0.01 -0.00152561 -0.000156052 -3.57545e-06 0.326535
0.83 0.01 -0.00123558 -0.000144488 -2.82426e-06 0.270592
0.835 0.01 -0.00096705 -0.000133071 -2.13057e-06 0.218641
0.84 0.01 -0.000719735 -0.000121837 -1.49355e-06 0.170637
0.845 0.01 -0.000493297 -0.00011082 -9.12193e-07 0.126524
0.85 0.01 -0.000287335 -0.000100049 -3.85345e-07 0.0862344
0.855 0.01 -0.000101392 -8.95523e-05 8.83024e-08 0.0496913
0.86 0.01 6.50404e-05 -7.93558e-05 5.10187e-07 0.0168068
0.865 0.01 0.000212516 -6.94818e-05 8.8187e-07 -0.0125157
0.87 0.01 0.000341633 -5.99501e-05 1.20501e-06 -0.0383811
0.875 0.01 0.000453024 -5.07785e-05 1.48138e-06 -0.0609018
0.88 0.01 0.000547357 -4.19819e-05 1.71281e-06 -0.0801971
0.885 0.01 0.000625329 -3.35734e-05 1.90121e-06 -0.0963928
0.89 0.01 0.000687663 -2.55642e-05 2.04855e-06 -0.10962
0.895 0.01 0.000735107 -1.79639e-05 2.15686e-06 -0.120016
0.9 0.01 0.000768427 -1.07811e-05 2.2282e-06 -0.127721
0.905 0.01 0.000788412 -4.02381e-06 2.26468e-06 -0.132882
0.91 0.01 0.000795867 2.29983e-06 2.26844e-06 -0.135651
0.915 0.01 0.00079162 8.18086e-06 2.24168e-06 -0.136182
0.92 0.01 0.000776521 1.36085e-05 2.18664e-06 -0.134638
0.925 0.01 0.000751447 1.85693e-05 2.1056e-06 -0.131186
0.93 0.01 0.000717306 2.30453e-05 2.00095e-06 -0.126001
0.935 0.01 0.00067505 2.70131e-05 1.87516e-06 -0.119266
0.94 0.01 0.000625683 3.04414e-05 1.73083e-06 -0.111177
0.945 0.01 0.000570274 3.32892e-05 1.57075e-06 -0.101941
0.95 0.01 0.000509981 3.55025e-05 1.39794e-06 -0.0917815
0.955 0.01 0.000446067 3.70113e-05 1.21572e-06 -0.0809417
0.96 0.01 0.00037993 3.77253e-05 1.02783e-06 -0.0696877
0.965 0.01 0.000313133 3.75296e-05 8.38472e-07 -0.0583123
0.97 0.01 0.00024744 3.62791e-05 6.52532e-07 -0.0471372
0.975 0.01 0.000184846 3.37968e-05 4.75682e-07 -0.0365132
0.98 0.01 0.000127598 2.9878e-05 3.14565e-07 -0.0268121
0.985 0.01 7.8177e-05 2.43238e-05 1.76902e-07 -0.0184022
0.99 0.01 3.91795e-05 1.70585e-05 7.13271e-08 -0.0115882
0.995 0.01 1.29471e-05 8.49811e-06 6.31685e-09 -0.00647509
1 0.01 6.3184e-07 6.31685e-07 -1.36541e-08 -0.00269007
0 0.015 0 0 -0.000505472 0
0.005 0.015 0 0 0 -255.962
0.01 0.015 -0.152864 0.184876 -0.00180048 -79.2528
0.015 0.015 -0.206264 -0.0236374 -0.00184876 -16.638
0.02 0.015 -0.204621 -0.0572948 -0.00156411 2.30868
0.025 0.015 -0.184606 -0.0522449 -0.00127581 7.91626
0.03 0.015 -0.161075 -0.0416659 -0.00104166 9.23777
0.035 0.015 -0.139019 -0.0325284 -0.000859151 9.10346
0.04 0.015 -0.119729 -0.0256222 -0.000716374 8.4804
0.045 0.015 -0.103246 -0.020507 -0.00060293 7.72163
0.05 0.015 -0.0892535 -0.0166652 -0.000511304 6.96042
0.055 0.015 -0.0773811 -0.0137101 -0.000436277 6.24661
0.06 0.015 -0.0672938 -0.0113816 -0.000374203 5.59696
0.065 0.015 -0.0587103 -0.00950856 -0.000322461 5.01476
0.07 0.015 -0.0513988 -0.00797716 -0.000279117 4.4978
0.075 0.015 -0.0451679 -0.00670964 -0.00024269 4.04169
0.08 0.015 -0.039859 -0.00565105 -0.00021202 3.6413
0.085 0.015 -0.0353391 -0.00476122 -0.000186179 3.2914
0.09 0.015 -0.031496 -0.00400971 -0.000164408 2.98695
0.095 0.015 -0.0282344 -0.00337282 -0.000146082 2.72321
0.1 0.015 -0.0254731 -0.00283163 -0.00013068 2.49581
0.105 0.015 -0.0231429 -0.00237073 -0.000117766 2.30077
0.11 0.015 -0.0211842 -0.00197744 -0.000106973 2.13448
0.115 0.015 -0.0195465 -0.00164118 -9.79913e-05 1.99368
0.12 0.015 -0.0181861 -0.00135308 -9.05608e-05 1.87549
0.125 0.015 -0.0170659 -0.00110567 -8.44604e-05 1.77732
0.13 0.015 -0.016154 -0.000892656 -7.9504e-05 1.69688
0.135 0.015 -0.0154233 -0.000708692 -7.55338e-05 1.63217
0.14 0.015 -0.0148505 -0.000549263 -7.2417e-05 1.58141
0.145 0.015 -0.014416 -0.000410541 -7.00411e-05 1.54306
0.15 0.015 -0.0141029 -0.000289289 -6.83115e-05 1.51575
0.155 0.015 -0.0138968 -0.000182763 -6.71482e-05 1.49832
0.16 0.015 -0.0137856 -8.86462e-05 -6.64839e-05 1.48973
0.165 0.015 -0.0137589 -4.98114e-06 -6.62617e-05 1.48909
0.17 0.015 -0.0138079 6.98827e-05 -6.6434e-05 1.49564
0.175 0.015 -0.0139252 0.000137334 -6.69605e-05 1.5087
0.18 0.015 -0.0141044 0.000198541 -6.78073e-05 1.52769
0.185 0.015 -0.0143402 0.000254479 -6.89459e-05 1.5521
0.19 0.015 -0.0146279 0.000305965 -7.0352e-05 1.5815
0.195 0.015 -0.0149635 0.000353678 -7.20055e-05 1.61552
0.2 0.015 -0.0153439 0.000398182 -7.38888e-05 1.6538
0.205 0.015 -0.0157659 0.000439942 -7.59873e-05 1.69606
0.21 0.015 -0.0162272 0.000479338 -7.82882e-05 1.74205
0.215 0.015 -0.0167255 0.000516681 -8.07806e-05 1.79152
0.22 0.015 -0.0172589 0.000552223 -8.3455e-05 1.84428
0.225 0.015 -0.0178257 0.000586165 -8.63028e-05 1.90013
0.23 0.015 -0.0184243 0.000618665 -8.93166e-05 1.95891
0.235 0.015 -0.0190532 0.000649846 -9.24894e-05 2.02044
0.24 0.015 -0.0197112 0.000679801 -9.5815e-05 2.08459
0.245 0.015 -0.0203969 0.000708598 -9.92874e-05 2.15122
0.25 0.015 -0.0211093 0.000736282 -0.000102901 2.22017
0.255 0.015 -0.0218471 0.000762884 -0.00010665 2.29133
0.26 0.015 -0.0226092 0.000788416 -0.00011053 2.36456
0.265 0.015 -0.0233944 0.00081288 -0.000114534 2.43973
0.27 0.015 -0.0242016 0.000836266 -0.000118659 2.51672
0.275 0.015 -0.0250297 0.000858557 -0.000122897 2.5954
0.28 0.015 -0.0258776 0.000879728 -0.000127244 2.67564
0.285 0.015 -0.0267439 0.000899746 -0.000131694 2.7573
0.29 0.015 -0.0276275 0.000918576 -0.000136242 2.84026
0.295 0.015 -0.0285272 0.000936178 -0.00014088 2.92438
0.3 0.015 -0.0294417 0.000952508 -0.000145603 3.00952
0.305 0.015 -0.0303695 0.000967522 -0.000150405 3.09555
0.31 0.015 -0.0313095 0.000981171 -0.000155279 3.18232
0.315 0.015 -0.03226 0.000993409 -0.000160217 3.26969
0.32 0.015 -0.0332198 0.00100419 -0.000165213 3.35751
0.325 0.015 -0.0341873 0.00101345 -0.000170259 3.44563
0.33 0.015 -0.035161 0.00102116 -0.000175347 3.53389
0.335 0.015 -0.0361393 0.00102727 -0.000180471 3.62216
0.34 0.015 -0.0371206 0.00103172 -0.00018562 3.71025
0.345 0.015 -0.0381032 0.00103448 -0.000190788 3.79803
0.35 0.015 -0.0390855 0.0010355 -0.000195965 3.88533
0.355 0.015 -0.0400658 0.00103474 -0.000201143 3.97198
0.36 0.015 -0.0410423 0.00103217 -0.000206312 4.05784
0.365 0.015 -0.0420133 0.00102775 -0.000211465 4.14273
0.37 0.015 -0.042977 0.00102145 -0.00021659 4.22649
0.375 0.015 -0.0439315 0.00101324 -0.000221679 4.30896
0.38 0.015 -0.044875 0.0010031 -0.000226722 4.38997
0.385 0.015 -0.0458058 0.000991005 -0.00023171 4.46937
0.39 0.015 -0.0467219 0.000976943 -0.000236633 4.547
0.395 0.015 -0.0476215 0.000960899 -0.00024148 4.62269
0.4 0.015 -0.0485027 0.000942866 -0.000246242 4.69629
0.405 0.015 -0.0493638 0.000922841 -0.000250908 4.76764
0.41 0.015 -0.0502028 0.000900823 -0.00025547 4.83659
0.415 0.015 -0.0510179 0.00087682 -0.000259917 4.90299
0.42 0.015 -0.0518074 0.000850841 -0.000264239 4.9667
0.425 0.015 -0.0525694 0.000822903 -0.000268425 5.02757
0.43 0.015 -0.0533021 0.000793025 -0.000272468 5.08545
0.435 0.015 -0.0540039 0.000761233 -0.000276356 5.14023
0.44 0.015 -0.054673 0.000727557 -0.00028008 5.19176
0.445 0.015 -0.0553077 0.000692034 -0.000283632 5.23993
0.45 0.015 -0.0559065 0.000654703 -0.000287001 5.2846
0.455 0.015 -0.0564677 0.000615611 -0.000290179 5.32568
0.46 0.015 -0.0569899 0.000574809 -0.000293157 5.36304
0.465 0.015 -0.0574715 0.000532354 -0.000295927 5.39658
0.47 0.015 -0.0579112 0.000488308 -0.000298481 5.42622
0.475 0.015 -0.0583076 0.000442737 -0.00030081 5.45186
0.48 0.015 -0.0586595 0.000395713 -0.000302908 5.47342
0.485 0.015 -0.0589657 0.000347315 -0.000304768 5.49082
0.49 0.015 -0.059225 0.000297624 -0.000306382 5.504
0.495 0.015 -0.0594364 0.000246728 -0.000307744 5.51289
0.5 0.015 -0.0595989 0.00019472 -0.000308849 5.51745
0.505 0.015 -0.0597118 0.000141698 -0.000309691 5.51763
0.51 0.015 -0.0597743 8.77632e-05 -0.000310266 5.5134
0.515 0.015 -0.0597856 3.3023e-05 -0.000310569 5.50472
0.52 0.015 -0.0597452 -2.2411e-05 -0.000310597 5.49158
0.525 0.015 -0.0596527 -7.8423e-05 -0.000310345 5.47397
0.53 0.015 -0.0595077 -0.000134893 -0.000309813 5.45188
0.535 0.015 -0.05931 -0.000191697 -0.000308997 5.42534
0.54 0.015 -0.0590595 -0.000248707 -0.000307896 5.39434
0.545 0.015 -0.0587561 -0.000305793 -0.00030651 5.35893
0.55 0.015 -0.0584 -0.00036282 -0.000304838 5.31913
0.555 0.015 -0.0579913 -0.000419652 -0.000302882 5.27499
0.56 0.015 -0.0575306 -0.000476148 -0.000300642 5.22657
0.565 0.015 -0.0570181 -0.000532168 -0.000298121 5.17392
0.57 0.015 -0.0564546 -0.000587569 -0.000295321 5.11712
0.575 0.015 -0.0558408 -0.000642207 -0.000292245 5.05625
0.58 0.015 -0.0551776 -0.000695937 -0.000288899 4.9914
0.585 0.015 -0.0544658 -0.000748615 -0.000285286 4.92267
0.59 0.015 -0.0537067 -0.000800095 -0.000281413 4.85017
0.595 0.015 -0.0529015 -0.000850234 -0.000277286 4.77402
0.6 0.015 -0.0520515 -0.000898892 -0.000272911 4.69433
0.605 0.015 -0.0511583 -0.000945927 -0.000268297 4.61125
0.61 0.015 -0.0502234 -0.000991202 -0.000263452 4.52492
0.615 0.015 -0.0492485 -0.00103459 -0.000258385 4.43548
0.62 0.015 -0.0482355 -0.00107595 -0.000253106 4.3431
0.625 0.015 -0.0471863 -0.00111516 -0.000247626 4.24793
0.63 0.015 -0.046103 -0.00115211 -0.000241955 4.15015
0.635 0.015 -0.0449877 -0.00118668 -0.000236105 4.04993
0.64 0.015 -0.0438426 -0.00121877 -0.000230088 3.94745
0.645 0.015 -0.0426701 -0.00124827 -0.000223918 3.84291
0.65 0.015 -0.0414725 -0.0012751 -0.000217606 3.7365
0.655 0.015 -0.0402524 -0.00129917 -0.000211167 3.62842
0.66 0.015 -0.0390122 -0.00132041 -0.000204614 3.51886
0.665 0.015 -0.0377546 -0.00133877 -0.000197963 3.40803
0.67 0.015 -0.0364822 -0.00135417 -0.000191227 3.29615
0.675 0.015 -0.0351977 -0.00136659 -0.000184421 3.18341
0.68 0.015 -0.0339039 -0.001376 -0.000177561 3.07004
0.685 0.015 -0.0326033 -0.00138236 -0.000170662 2.95625
0.69 0.015 -0.0312989 -0.00138569 -0.000163738 2.84224
0.695 0.015 -0.0299933 -0.00138598 -0.000156805 2.72824
0.7 0.015 -0.0286892 -0.00138324 -0.000149878 2.61445
0.705 0.015 -0.0273894 -0.00137751 -0.000142973 2.50109
0.71 0.015 -0.0260966 -0.00136884 -0.000136103 2.38836
0.715 0.015 -0.0248133 -0.00135726 -0.000129284 2.27647
0.72 0.015 -0.0235423 -0.00134285 -0.000122531 2.16562
0.725 0.015 -0.0222859 -0.00132569 -0.000115856 2.056
0.73 0.015 -0.0210467 -0.00130587 -0.000109274 1.94782
0.735 0.015 -0.0198271 -0.00128348 -0.000102797 1.84125
0.74 0.015 -0.0186292 -0.00125863 -9.6439e-05 1.73648
0.745 0.015 -0.0174553 -0.00123145 -9.02111e-05 1.63368
0.75 0.015 -0.0163075 -0.00120206 -8.41247e-05 1.53302
0.755 0.015 -0.0151877 -0.0011706 -7.81906e-05 1.43465
0.76 0.015 -0.0140977 -0.00113721 -7.24188e-05 1.33872
0.765 0.015 -0.0130393 -0.00110205 -6.68185e-05 1.24537
0.77 0.015 -0.012014 -0.00106528 -6.13983e-05 1.15473
0.775 0.015 -0.0110232 -0.00102705 -5.61658e-05 1.06692
0.78 0.015 -0.0100682 -0.000987528 -5.11279e-05 0.982061
0.785 0.015 -0.00915024 -0.00094689 -4.62905e-05 0.900237
0.79 0.015 -0.00827016 -0.000905303 -4.1659e-05 0.821542
0.795 0.015 -0.00742885 -0.000862937 -3.72375e-05 0.746053
0.8 0.015 -0.00662699 -0.000819963 -3.30296e-05 0.673834
0.805 0.015 -0.0058651 -0.000776549 -2.90379e-05 0.60494
0.81 0.015 -0.00514357 -0.000732862 -2.52641e-05 0.539414
0.815 0.015 -0.00446262 -0.000689064 -2.17093e-05 0.477286
0.82 0.015 -0.00382233 -0.000645314 -1.83735e-05 0.418576
0.825 0.015 -0.00322266 -0.000601765 -1.52561e-05 0.363293
0.83 0.015 -0.0026634 -0.000558562 -1.23558e-05 0.311434
0.835 0.015 -0.00214423 -0.000515847 -9.67048e-06 0.262986
0.84 0.015 -0.00166469 -0.000473751 -7.19732e-06 0.217926