Title=" Lid Driven Flow"
VARIABLES="X","Y","U","V","psi","xi"
ZONE T= "BOX", I= 201, J=201, F=POINT
0 0 0 0 0.00345859 0
0.005 0 0 0 0 0
0.01 0 0 0 0 0
0.015 0 0 0 0 161.891
0.02 0 0 0 0 176.121
0.025 0 0 0 0 155.598
0.03 0 0 0 0 133.202
0.035 0 0 0 0 115.678
0.04 0 0 0 0 102.82
0.045 0 0 0 0 93.2849
0.05 0 0 0 0 85.9622
0.055 0 0 0 0 80.119
0.06 0 0 0 0 75.2969
0.065 0 0 0 0 71.2069
0.07 0 0 0 0 67.6611
0.075 0 0 0 0 64.5329
0.08 0 0 0 0 61.7339
0.085 0 0 0 0 59.2005
0.09 0 0 0 0 56.8857
0.095 0 0 0 0 54.7543
0.1 0 0 0 0 52.7791
0.105 0 0 0 0 50.9392
0.11 0 0 0 0 49.2178
0.115 0 0 0 0 47.6014
0.12 0 0 0 0 46.0792
0.125 0 0 0 0 44.642
0.13 0 0 0 0 43.2821
0.135 0 0 0 0 41.9932
0.14 0 0 0 0 40.7694
0.145 0 0 0 0 39.606
0.15 0 0 0 0 38.4986
0.155 0 0 0 0 37.4433
0.16 0 0 0 0 36.4365
0.165 0 0 0 0 35.4751
0.17 0 0 0 0 34.5561
0.175 0 0 0 0 33.6768
0.18 0 0 0 0 32.8346
0.185 0 0 0 0 32.0273
0.19 0 0 0 0 31.2526
0.195 0 0 0 0 30.5084
0.2 0 0 0 0 29.7927
0.205 0 0 0 0 29.1039
0.21 0 0 0 0 28.4401
0.215 0 0 0 0 27.7996
0.22 0 0 0 0 27.181
0.225 0 0 0 0 26.5828
0.23 0 0 0 0 26.0037
0.235 0 0 0 0 25.4422
0.24 0 0 0 0 24.8972
0.245 0 0 0 0 24.3676
0.25 0 0 0 0 23.8522
0.255 0 0 0 0 23.35
0.26 0 0 0 0 22.86
0.265 0 0 0 0 22.3814
0.27 0 0 0 0 21.9133
0.275 0 0 0 0 21.4548
0.28 0 0 0 0 21.0052
0.285 0 0 0 0 20.5638
0.29 0 0 0 0 20.13
0.295 0 0 0 0 19.7032
0.3 0 0 0 0 19.2827
0.305 0 0 0 0 18.8681
0.31 0 0 0 0 18.4589
0.315 0 0 0 0 18.0547
0.32 0 0 0 0 17.655
0.325 0 0 0 0 17.2594
0.33 0 0 0 0 16.8677
0.335 0 0 0 0 16.4795
0.34 0 0 0 0 16.0947
0.345 0 0 0 0 15.7128
0.35 0 0 0 0 15.3339
0.355 0 0 0 0 14.9576
0.36 0 0 0 0 14.5838
0.365 0 0 0 0 14.2125
0.37 0 0 0 0 13.8434
0.375 0 0 0 0 13.4767
0.38 0 0 0 0 13.1122
0.385 0 0 0 0 12.7499
0.39 0 0 0 0 12.3898
0.395 0 0 0 0 12.032
0.4 0 0 0 0 11.6765
0.405 0 0 0 0 11.3234
0.41 0 0 0 0 10.9727
0.415 0 0 0 0 10.6246
0.42 0 0 0 0 10.2792
0.425 0 0 0 0 9.93657
0.43 0 0 0 0 9.59696
0.435 0 0 0 0 9.26047
0.44 0 0 0 0 8.92729
0.445 0 0 0 0 8.59761
0.45 0 0 0 0 8.2716
0.455 0 0 0 0 7.94946
0.46 0 0 0 0 7.6314
0.465 0 0 0 0 7.31763
0.47 0 0 0 0 7.00835
0.475 0 0 0 0 6.70376
0.48 0 0 0 0 6.40409
0.485 0 0 0 0 6.10953
0.49 0 0 0 0 5.82029
0.495 0 0 0 0 5.53656
0.5 0 0 0 0 5.25855
0.505 0 0 0 0 4.98643
0.51 0 0 0 0 4.72037
0.515 0 0 0 0 4.46055
0.52 0 0 0 0 4.20712
0.525 0 0 0 0 3.96023
0.53 0 0 0 0 3.71999
0.535 0 0 0 0 3.48653
0.54 0 0 0 0 3.25995
0.545 0 0 0 0 3.04034
0.55 0 0 0 0 2.82776
0.555 0 0 0 0 2.62227
0.56 0 0 0 0 2.4239
0.565 0 0 0 0 2.23269
0.57 0 0 0 0 2.04863
0.575 0 0 0 0 1.87172
0.58 0 0 0 0 1.70192
0.585 0 0 0 0 1.5392
0.59 0 0 0 0 1.3835
0.595 0 0 0 0 1.23474
0.6 0 0 0 0 1.09284
0.605 0 0 0 0 0.957699
0.61 0 0 0 0 0.829207
0.615 0 0 0 0 0.70724
0.62 0 0 0 0 0.591662
0.625 0 0 0 0 0.482331
0.63 0 0 0 0 0.379092
0.635 0 0 0 0 0.281786
0.64 0 0 0 0 0.190243
0.645 0 0 0 0 0.104292
0.65 0 0 0 0 0.0237523
0.655 0 0 0 0 -0.0515581
0.66 0 0 0 0 -0.121825
0.665 0 0 0 0 -0.187238
0.67 0 0 0 0 -0.247987
0.675 0 0 0 0 -0.304264
0.68 0 0 0 0 -0.35626
0.685 0 0 0 0 -0.40417
0.69 0 0 0 0 -0.448185
0.695 0 0 0 0 -0.488498
0.7 0 0 0 0 -0.5253
0.705 0 0 0 0 -0.558783
0.71 0 0 0 0 -0.589134
0.715 0 0 0 0 -0.616543
0.72 0 0 0 0 -0.641196
0.725 0 0 0 0 -0.663277
0.73 0 0 0 0 -0.682966
0.735 0 0 0 0 -0.700441
0.74 0 0 0 0 -0.715875
0.745 0 0 0 0 -0.729437
0.75 0 0 0 0 -0.741287
0.755 0 0 0 0 -0.751579
0.76 0 0 0 0 -0.760457
0.765 0 0 0 0 -0.768054
0.77 0 0 0 0 -0.774492
0.775 0 0 0 0 -0.779879
0.78 0 0 0 0 -0.784307
0.785 0 0 0 0 -0.787854
0.79 0 0 0 0 -0.79058
0.795 0 0 0 0 -0.792527
0.8 0 0 0 0 -0.793717
0.805 0 0 0 0 -0.794156
0.81 0 0 0 0 -0.793831
0.815 0 0 0 0 -0.792709
0.82 0 0 0 0 -0.790743
0.825 0 0 0 0 -0.787869
0.83 0 0 0 0 -0.784007
0.835 0 0 0 0 -0.779067
0.84 0 0 0 0 -0.77295
0.845 0 0 0 0 -0.765547
0.85 0 0 0 0 -0.756748
0.855 0 0 0 0 -0.74644
0.86 0 0 0 0 -0.734512
0.865 0 0 0 0 -0.72086
0.87 0 0 0 0 -0.705389
0.875 0 0 0 0 -0.688018
0.88 0 0 0 0 -0.66868
0.885 0 0 0 0 -0.64733
0.89 0 0 0 0 -0.623948
0.895 0 0 0 0 -0.598537
0.9 0 0 0 0 -0.571135
0.905 0 0 0 0 -0.541809
0.91 0 0 0 0 -0.510663
0.915 0 0 0 0 -0.477836
0.92 0 0 0 0 -0.44351
0.925 0 0 0 0 -0.407904
0.93 0 0 0 0 -0.37128
0.935 0 0 0 0 -0.333942
0.94 0 0 0 0 -0.296235
0.945 0 0 0 0 -0.258548
0.95 0 0 0 0 -0.221313
0.955 0 0 0 0 -0.185
0.96 0 0 0 0 -0.150125
0.965 0 0 0 0 -0.117242
0.97 0 0 0 0 -0.0869442
0.975 0 0 0 0 -0.059861
0.98 0 0 0 0 -0.0366481
0.985 0 0 0 0 -0.0179675
0.99 0 0 0 0 -0.00443781
0.995 0 0 0 0 0.00348201
1 0 0 0 0 0.00576744
0 0.005 0 0 0 0
0.005 0.005 0 0 0 0
0.01 0.005 0 0 0 73.7283
0.015 0.005 0 0 0 62.0752
0.02 0.005 0 0 0 45.7367
0.025 0.005 0 0 0 33.9758
0.03 0.005 0 0 0 26.0773
0.035 0.005 0 0 0 20.6404
0.04 0.005 0 0 0 16.7254
0.045 0.005 0 0 0 13.7829
0.05 0.005 0 0 0 11.4951
0.055 0.005 0 0 0 9.6719
0.06 0.005 0 0 0 8.19382
0.065 0.005 0 0 0 6.9814
0.07 0.005 0 0 0 5.9791
0.075 0.005 0 0 0 5.14628
0.08 0.005 0 0 0 4.4521
0.085 0.005 0 0 0 3.87245
0.09 0.005 0 0 0 3.3881
0.095 0.005 0 0 0 2.98345
0.1 0.005 0 0 0 2.64572
0.105 0.005 0 0 0 2.36434
0.11 0.005 0 0 0 2.13055
0.115 0.005 0 0 0 1.93703
0.12 0.005 0 0 0 1.77767
0.125 0.005 0 0 0 1.64737
0.13 0.005 0 0 0 1.54185
0.135 0.005 0 0 0 1.45753
0.14 0.005 0 0 0 1.39143
0.145 0.005 0 0 0 1.34102
0.15 0.005 0 0 0 1.30422
0.155 0.005 0 0 0 1.27927
0.16 0.005 0 0 0 1.2647
0.165 0.005 0 0 0 1.25929
0.17 0.005 0 0 0 1.26201
0.175 0.005 0 0 0 1.27201
0.18 0.005 0 0 0 1.28859
0.185 0.005 0 0 0 1.31114
0.19 0.005 0 0 0 1.33917
0.195 0.005 0 0 0 1.37225
0.2 0.005 0 0 0 1.41005
0.205 0.005 0 0 0 1.45226
0.21 0.005 0 0 0 1.49864
0.215 0.005 0 0 0 1.54897
0.22 0.005 0 0 0 1.60307
0.225 0.005 0 0 0 1.66077
0.23 0.005 0 0 0 1.72193
0.235 0.005 0 0 0 1.78643
0.24 0.005 0 0 0 1.85414
0.245 0.005 0 0 0 1.92497
0.25 0.005 0 0 0 1.99879
0.255 0.005 0 0 0 2.07552
0.26 0.005 0 0 0 2.15506
0.265 0.005 0 0 0 2.2373
0.27 0.005 0 0 0 2.32215
0.275 0.005 0 0 0 2.40951
0.28 0.005 0 0 0 2.49926
0.285 0.005 0 0 0 2.59132
0.29 0.005 0 0 0 2.68556
0.295 0.005 0 0 0 2.78187
0.3 0.005 0 0 0 2.88013
0.305 0.005 0 0 0 2.98022
0.31 0.005 0 0 0 3.082
0.315 0.005 0 0 0 3.18533
0.32 0.005 0 0 0 3.29009
0.325 0.005 0 0 0 3.39611
0.33 0.005 0 0 0 3.50324
0.335 0.005 0 0 0 3.61133
0.34 0.005 0 0 0 3.72021
0.345 0.005 0 0 0 3.82971
0.35 0.005 0 0 0 3.93966
0.355 0.005 0 0 0 4.04987
0.36 0.005 0 0 0 4.16016
0.365 0.005 0 0 0 4.27033
0.37 0.005 0 0 0 4.3802
0.375 0.005 0 0 0 4.48957
0.38 0.005 0 0 0 4.59822
0.385 0.005 0 0 0 4.70596
0.39 0.005 0 0 0 4.81258
0.395 0.005 0 0 0 4.91787
0.4 0.005 0 0 0 5.02161
0.405 0.005 0 0 0 5.12358
0.41 0.005 0 0 0 5.22358
0.415 0.005 0 0 0 5.32138
0.42 0.005 0 0 0 5.41677
0.425 0.005 0 0 0 5.50953
0.43 0.005 0 0 0 5.59945
0.435 0.005 0 0 0 5.68631
0.44 0.005 0 0 0 5.76989
0.445 0.005 0 0 0 5.85
0.45 0.005 0 0 0 5.92642
0.455 0.005 0 0 0 5.99895
0.46 0.005 0 0 0 6.06739
0.465 0.005 0 0 0 6.13155
0.47 0.005 0 0 0 6.19124
0.475 0.005 0 0 0 6.24629
0.48 0.005 0 0 0 6.2965
0.485 0.005 0 0 0 6.34172
0.49 0.005 0 0 0 6.38179
0.495 0.005 0 0 0 6.41656
0.5 0.005 0 0 0 6.44588
0.505 0.005 0 0 0 6.46962
0.51 0.005 0 0 0 6.48767
0.515 0.005 0 0 0 6.49991
0.52 0.005 0 0 0 6.50624
0.525 0.005 0 0 0 6.50658
0.53 0.005 0 0 0 6.50085
0.535 0.005 0 0 0 6.48899
0.54 0.005 0 0 0 6.47097
0.545 0.005 0 0 0 6.44673
0.55 0.005 0 0 0 6.41627
0.555 0.005 0 0 0 6.37959
0.56 0.005 0 0 0 6.33669
0.565 0.005 0 0 0 6.2876
0.57 0.005 0 0 0 6.23238
0.575 0.005 0 0 0 6.17108
0.58 0.005 0 0 0 6.10378
0.585 0.005 0 0 0 6.03057
0.59 0.005 0 0 0 5.95156
0.595 0.005 0 0 0 5.86688
0.6 0.005 0 0 0 5.77668
0.605 0.005 0 0 0 5.68112
0.61 0.005 0 0 0 5.58037
0.615 0.005 0 0 0 5.47463
0.62 0.005 0 0 0 5.3641
0.625 0.005 0 0 0 5.24901
0.63 0.005 0 0 0 5.12959
0.635 0.005 0 0 0 5.00611
0.64 0.005 0 0 0 4.87881
0.645 0.005 0 0 0 4.74799
0.65 0.005 0 0 0 4.61393
0.655 0.005 0 0 0 4.47692
0.66 0.005 0 0 0 4.33729
0.665 0.005 0 0 0 4.19534
0.67 0.005 0 0 0 4.05141
0.675 0.005 0 0 0 3.90582
0.68 0.005 0 0 0 3.7589
0.685 0.005 0 0 0 3.61101
0.69 0.005 0 0 0 3.46248
0.695 0.005 0 0 0 3.31364
0.7 0.005 0 0 0 3.16485
0.705 0.005 0 0 0 3.01644
0.71 0.005 0 0 0 2.86875
0.715 0.005 0 0 0 2.72211
0.72 0.005 0 0 0 2.57683
0.725 0.005 0 0 0 2.43325
0.73 0.005 0 0 0 2.29165
0.735 0.005 0 0 0 2.15234
0.74 0.005 0 0 0 2.01561
0.745 0.005 0 0 0 1.88171
0.75 0.005 0 0 0 1.75091
0.755 0.005 0 0 0 1.62345
0.76 0.005 0 0 0 1.49955
0.765 0.005 0 0 0 1.37942
0.77 0.005 0 0 0 1.26325
0.775 0.005 0 0 0 1.15121
0.78 0.005 0 0 0 1.04345
0.785 0.005 0 0 0 0.9401
0.79 0.005 0 0 0 0.841279
0.795 0.005 0 0 0 0.747078
0.8 0.005 0 0 0 0.657571
0.805 0.005 0 0 0 0.572812
0.81 0.005 0 0 0 0.492838
0.815 0.005 0 0 0 0.417663
0.82 0.005 0 0 0 0.347287
0.825 0.005 0 0 0 0.28169
0.83 0.005 0 0 0 0.220836
0.835 0.005 0 0 0 0.164672
0.84 0.005 0 0 0 0.113132
0.845 0.005 0 0 0 0.0661323
0.85 0.005 0 0 0 0.0235796
0.855 0.005 0 0 0 -0.0146337
0.86 0.005 0 0 0 -0.0486254
0.865 0.005 0 0 0 -0.0785235
0.87 0.005 0 0 0 -0.104465
0.875 0.005 0 0 0 -0.126593
0.88 0.005 0 0 0 -0.145061
0.885 0.005 0 0 0 -0.160024
0.89 0.005 0 0 0 -0.171645
0.895 0.005 0 0 0 -0.18009
0.9 0.005 0 0 0 -0.185528
0.905 0.005 0 0 0 -0.188134
0.91 0.005 0 0 0 -0.188083
0.915 0.005 0 0 0 -0.185555
0.92 0.005 0 0 0 -0.180734
0.925 0.005 0 0 0 -0.173808
0.93 0.005 0 0 0 -0.164972
0.935 0.005 0 0 0 -0.15443
0.94 0.005 0 0 0 -0.142395
0.945 0.005 0 0 0 -0.129095
0.95 0.005 0 0 0 -0.114779
0.955 0.005 0 0 0 -0.0997179
0.96 0.005 0 0 0 -0.0842176
0.965 0.005 0 0 0 -0.0686241
0.97 0.005 0 0 0 -0.0533363
0.975 0.005 0 0 0 -0.0388187
0.98 0.005 0 0 0 -0.0256143
0.985 0.005 0 0 0 -0.0143535
0.99 0.005 0 0 0 -0.00573921
0.995 0.005 0 0 0 -0.000458091
1 0.005 0 0 0 0.00113671
0 0.01 0 0 0.00113671 0
0.005 0.01 0 0 0 -326.272
0.01 0.01 -0.180049 0.0775941 -0.000921604 -44.3993
0.015 0.01 -0.18488 -0.0349894 -0.000775941 9.53404
0.02 0.01 -0.156418 -0.0351243 -0.000571709 19.1195
0.025 0.01 -0.12759 -0.0245744 -0.000424698 18.9915
0.03 0.01 -0.104173 -0.0166693 -0.000325966 16.823
0.035 0.01 -0.085918 -0.0116898 -0.000258005 14.4877
0.04 0.01 -0.0716332 -0.00857193 -0.000209068 12.4141
0.045 0.01 -0.0602802 -0.00653792 -0.000172286 10.6566
0.05 0.01 -0.0511085 -0.00513872 -0.000143688 9.18063
0.055 0.01 -0.0435968 -0.00412657 -0.000120899 7.93934
0.06 0.01 -0.0373807 -0.00336313 -0.000102423 6.8913
0.065 0.01 -0.0321989 -0.00276839 -8.72675e-05 6.00322
0.07 0.01 -0.0278578 -0.00229389 -7.47387e-05 5.24876
0.075 0.01 -0.0242096 -0.00190875 -6.43285e-05 4.60687
0.08 0.01 -0.0211383 -0.00159229 -5.56512e-05 4.06049
0.085 0.01 -0.0185509 -0.00133 -4.84056e-05 3.59556
0.09 0.01 -0.0163715 -0.00111125 -4.23512e-05 3.20036
0.095 0.01 -0.0145375 -0.000927972 -3.72931e-05 2.86499
0.1 0.01 -0.0129966 -0.000773881 -3.30715e-05 2.58109
0.105 0.01 -0.0117051 -0.00064396 -2.95543e-05 2.34149
0.11 0.01 -0.0106263 -0.000534144 -2.66318e-05 2.1401
0.115 0.01 -0.00972904 -0.0004411 -2.42128e-05 1.97167
0.12 0.01 -0.00898723 -0.000362074 -2.22208e-05 1.83175
0.125 0.01 -0.00837868 -0.000294774 -2.05921e-05 1.7165
0.13 0.01 -0.00788471 -0.00023729 -1.92731e-05 1.62264
0.135 0.01 -0.0074895 -0.000188024 -1.82191e-05 1.54737
0.14 0.01 -0.00717971 -0.000145637 -1.73928e-05 1.48831
0.145 0.01 -0.00694407 -0.000109007 -1.67628e-05 1.44341
0.15 0.01 -0.00677309 -7.7192e-05 -1.63027e-05 1.41094
0.155 0.01 -0.00665874 -4.94024e-05 -1.59908e-05 1.38942
0.16 0.01 -0.00659429 -2.49763e-05 -1.58087e-05 1.3776
0.165 0.01 -0.00657405 -3.35932e-06 -1.57411e-05 1.3744
0.17 0.01 -0.00659325 1.59126e-05 -1.57751e-05 1.37893
0.175 0.01 -0.00664785 3.32269e-05 -1.59002e-05 1.39041
0.18 0.01 -0.00673448 4.89068e-05 -1.61074e-05 1.40819
0.185 0.01 -0.00685028 6.32211e-05 -1.63892e-05 1.43171
0.19 0.01 -0.00699285 7.63928e-05 -1.67396e-05 1.4605
0.195 0.01 -0.00716015 8.86063e-05 -1.71532e-05 1.49416
0.2 0.01 -0.00735047 0.000100014 -1.76256e-05 1.53235
0.205 0.01 -0.00756233 0.000110739 -1.81533e-05 1.57475
0.21 0.01 -0.00779448 0.000120884 -1.8733e-05 1.62113
0.215 0.01 -0.00804582 0.000130531 -1.93621e-05 1.67124
0.22 0.01 -0.00831542 0.000139746 -2.00383e-05 1.7249
0.225 0.01 -0.00860242 0.000148581 -2.07596e-05 1.78193
0.23 0.01 -0.0089061 0.000157078 -2.15241e-05 1.84218
0.235 0.01 -0.00922576 0.000165267 -2.23304e-05 1.90548
0.24 0.01 -0.00956078 0.000173173 -2.31768e-05 1.97172
0.245 0.01 -0.00991057 0.000180813 -2.40621e-05 2.04076
0.25 0.01 -0.0102746 0.000188197 -2.49849e-05 2.11249
0.255 0.01 -0.0106523 0.000195332 -2.5944e-05 2.18678
0.26 0.01 -0.0110431 0.000202221 -2.69382e-05 2.26353
0.265 0.01 -0.0114465 0.000208864 -2.79663e-05 2.34261
0.27 0.01 -0.011862 0.000215257 -2.90269e-05 2.42392
0.275 0.01 -0.0122891 0.000221394 -3.01188e-05 2.50734
0.28 0.01 -0.0127272 0.000227268 -3.12408e-05 2.59274
0.285 0.01 -0.0131756 0.00023287 -3.23915e-05 2.68003
0.29 0.01 -0.013634 0.000238189 -3.35695e-05 2.76906
0.295 0.01 -0.0141015 0.000243214 -3.47734e-05 2.85972
0.3 0.01 -0.0145777 0.000247932 -3.60017e-05 2.95187
0.305 0.01 -0.0150619 0.00025233 -3.72527e-05 3.04539
0.31 0.01 -0.0155534 0.000256394 -3.8525e-05 3.14013
0.315 0.01 -0.0160514 0.000260111 -3.98167e-05 3.23595
0.32 0.01 -0.0165554 0.000263465 -4.11261e-05 3.33272
0.325 0.01 -0.0170645 0.000266443 -4.24513e-05 3.43027
0.33 0.01 -0.017578 0.000269031 -4.37905e-05 3.52845
0.335 0.01 -0.0180951 0.000271213 -4.51416e-05 3.62712
0.34 0.01 -0.018615 0.000272977 -4.65026e-05 3.7261
0.345 0.01 -0.0191368 0.000274308 -4.78714e-05 3.82523
0.35 0.01 -0.0196597 0.000275194 -4.92457e-05 3.92434
0.355 0.01 -0.0201827 0.000275622 -5.06234e-05 4.02326
0.36 0.01 -0.0207051 0.00027558 -5.2002e-05 4.12182
0.365 0.01 -0.0212258 0.000275056 -5.33792e-05 4.21983
0.37 0.01 -0.0217439 0.00027404 -5.47525e-05 4.31712
0.375 0.01 -0.0222586 0.000272523 -5.61196e-05 4.4135
0.38 0.01 -0.0227687 0.000270496 -5.74778e-05 4.50879
0.385 0.01 -0.0232733 0.00026795 -5.88246e-05 4.60281
0.39 0.01 -0.0237716 0.000264879 -6.01573e-05 4.69537
0.395 0.01 -0.0242623 0.000261277 -6.14734e-05 4.78629
0.4 0.01 -0.0247446 0.00025714 -6.27701e-05 4.87537
0.405 0.01 -0.0252175 0.000252464 -6.40448e-05 4.96243
0.41 0.01 -0.0256799 0.000247247 -6.52948e-05 5.04728
0.415 0.01 -0.0261308 0.000241488 -6.65173e-05 5.12975
0.42 0.01 -0.0265693 0.000235186 -6.77097e-05 5.20964
0.425 0.01 -0.0269944 0.000228345 -6.88692e-05 5.28679
0.43 0.01 -0.0274049 0.000220966 -6.99931e-05 5.361
0.435 0.01 -0.0278001 0.000213054 -7.10789e-05 5.4321
0.44 0.01 -0.0281789 0.000204614 -7.21237e-05 5.49993
0.445 0.01 -0.0285404 0.000195655 -7.3125e-05 5.56431
0.45 0.01 -0.0288836 0.000186184 -7.40803e-05 5.62507
0.455 0.01 -0.0292077 0.000176212 -7.49869e-05 5.68207
0.46 0.01 -0.0295117 0.00016575 -7.58424e-05 5.73515
0.465 0.01 -0.0297949 0.000154812 -7.66445e-05 5.78415
0.47 0.01 -0.0300563 0.000143412 -7.73906e-05 5.82894
0.475 0.01 -0.0302952 0.000131566 -7.80786e-05 5.86939
0.48 0.01 -0.0305109 0.000119293 -7.87063e-05 5.90535
0.485 0.01 -0.0307025 0.00010661 -7.92716e-05 5.93672
0.49 0.01 -0.0308695 9.35402e-05 -7.97724e-05 5.96337
0.495 0.01 -0.0310112 8.01046e-05 -8.0207e-05 5.98521
0.5 0.01 -0.031127 6.63275e-05 -8.05735e-05 6.00213
0.505 0.01 -0.0312163 5.22342e-05 -8.08703e-05 6.01405
0.51 0.01 -0.0312787 3.78515e-05 -8.10959e-05 6.0209
0.515 0.01 -0.0313136 2.3208e-05 -8.12489e-05 6.0226
0.52 0.01 -0.0313208 8.33322e-06 -8.1328e-05 6.01909
0.525 0.01 -0.0312999 -6.74155e-06 -8.13323e-05 6.01033
0.53 0.01 -0.0312505 -2.19839e-05 -8.12607e-05 5.99628
0.535 0.01 -0.0311725 -3.73599e-05 -8.11125e-05 5.97693
0.54 0.01 -0.0310658 -5.28346e-05 -8.08871e-05 5.95224
0.545 0.01 -0.0309302 -6.8372e-05 -8.05842e-05 5.92222
0.55 0.01 -0.0307657 -8.39346e-05 -8.02034e-05 5.88689
0.555 0.01 -0.0305724 -9.94844e-05 -7.97449e-05 5.84626
0.56 0.01 -0.0303504 -0.000114982 -7.92086e-05 5.80037
0.565 0.01 -0.0300998 -0.000130388 -7.85951e-05 5.74926
0.57 0.01 -0.0298211 -0.000145662 -7.79048e-05 5.693
0.575 0.01 -0.0295143 -0.000160762 -7.71385e-05 5.63165
0.58 0.01 -0.0291801 -0.000175647 -7.62972e-05 5.56531
0.585 0.01 -0.0288188 -0.000190276 -7.53821e-05 5.49407
0.59 0.01 -0.0284311 -0.000204607 -7.43945e-05 5.41803
0.595 0.01 -0.0280175 -0.000218598 -7.33361e-05 5.33734
0.6 0.01 -0.0275787 -0.000232208 -7.22086e-05 5.25211
0.605 0.01 -0.0271155 -0.000245396 -7.10141e-05 5.1625
0.61 0.01 -0.0266288 -0.000258121 -6.97547e-05 5.06866
0.615 0.01 -0.0261195 -0.000270346 -6.84329e-05 4.97077
0.62 0.01 -0.0255885 -0.00028203 -6.70513e-05 4.86902
0.625 0.01 -0.0250369 -0.000293137 -6.56127e-05 4.76359
0.63 0.01 -0.0244658 -0.000303632 -6.412e-05 4.65469
0.635 0.01 -0.0238764 -0.00031348 -6.25764e-05 4.54254
0.64 0.01 -0.0232698 -0.00032265 -6.09852e-05 4.42736
0.645 0.01 -0.0226475 -0.000331111 -5.93499e-05 4.30938
0.65 0.01 -0.0220106 -0.000338836 -5.76741e-05 4.18884
0.655 0.01 -0.0213606 -0.0003458 -5.59616e-05 4.06599
0.66 0.01 -0.0206989 -0.00035198 -5.42162e-05 3.94109
0.665 0.01 -0.0200268 -0.000357356 -5.24418e-05 3.8144
0.67 0.01 -0.0193461 -0.000361912 -5.06427e-05 3.68618
0.675 0.01 -0.018658 -0.000365635 -4.88228e-05 3.55671
0.68 0.01 -0.0179641 -0.000368513 -4.69863e-05 3.42625
0.685 0.01 -0.0172661 -0.000370541 -4.51377e-05 3.29509
0.69 0.01 -0.0165653 -0.000371714 -4.3281e-05 3.1635
0.695 0.01 -0.0158634 -0.000372033 -4.14206e-05 3.03176
0.7 0.01 -0.015162 -0.000371502 -3.95607e-05 2.90014
0.705 0.01 -0.0144625 -0.000370128 -3.77056e-05 2.76892
0.71 0.01 -0.0137665 -0.000367922 -3.58594e-05 2.63837
0.715 0.01 -0.0130754 -0.0003649 -3.40264e-05 2.50875
0.72 0.01 -0.0123908 -0.000361079 -3.22104e-05 2.38034
0.725 0.01 -0.0117141 -0.000356481 -3.04156e-05 2.25338
0.73 0.01 -0.0110466 -0.000351131 -2.86457e-05 2.12813
0.735 0.01 -0.0103897 -0.000345057 -2.69043e-05 2.00482
0.74 0.01 -0.0097447 -0.000338292 -2.51951e-05 1.88369
0.745 0.01 -0.00911282 -0.000330869 -2.35214e-05 1.76497
0.75 0.01 -0.00849524 -0.000322826 -2.18864e-05 1.64885
0.755 0.01 -0.00789304 -0.000314201 -2.02932e-05 1.53554
0.76 0.01 -0.00730727 -0.000305037 -1.87444e-05 1.42524
0.765 0.01 -0.00673888 -0.000295378 -1.72428e-05 1.31811
0.77 0.01 -0.00618874 -0.000285269 -1.57907e-05 1.21431
0.775 0.01 -0.00565765 -0.000274756 -1.43901e-05 1.11399
0.78 0.01 -0.00514632 -0.000263887 -1.30431e-05 1.01729
0.785 0.01 -0.00465537 -0.000252712 -1.17513e-05 0.924313
0.79 0.01 -0.00418535 -0.000241278 -1.0516e-05 0.835171
0.795 0.01 -0.00373669 -0.000229635 -9.33847e-06 0.749947
0.8 0.01 -0.00330977 -0.000217832 -8.21964e-06 0.668713
0.805 0.01 -0.00290486 -0.000205917 -7.16016e-06 0.591524
0.81 0.01 -0.00252215 -0.000193937 -6.16047e-06 0.518421
0.815 0.01 -0.00216173 -0.000181938 -5.22079e-06 0.449429
0.82 0.01 -0.00182364 -0.000169966 -4.34109e-06 0.384558
0.825 0.01 -0.00150781 -0.000158064 -3.52112e-06 0.323805
0.83 0.01 -0.0012141 -0.000146272 -2.76044e-06 0.267151
0.835 0.01 -0.000942311 -0.00013463 -2.0584e-06 0.214564
0.84 0.01 -0.000692151 -0.000123174 -1.41414e-06 0.166
0.845 0.01 -0.000463277 -0.00011194 -8.26649e-07 0.121402
0.85 0.01 -0.000255277 -0.000100957 -2.94738e-07 0.0807014
0.855 0.01 -6.76852e-05 -9.02557e-05 1.82928e-07 0.0438189
0.86 0.01 0.000100019 -7.98617e-05 6.07825e-07 0.0106649
0.865 0.01 0.000248404 -6.97984e-05 9.81551e-07 -0.0188594
0.87 0.01 0.000378082 -6.00867e-05 1.30582e-06 -0.0448615
0.875 0.01 0.000489703 -5.07445e-05 1.58242e-06 -0.0674567
0.88 0.01 0.000583952 -4.17876e-05 1.81327e-06 -0.0867674
0.885 0.01 0.000661545 -3.32294e-05 2.00031e-06 -0.102923
0.89 0.01 0.000723226 -2.50814e-05 2.14557e-06 -0.116057
0.895 0.01 0.00076976 -1.73534e-05 2.25113e-06 -0.126311
0.9 0.01 0.000801936 -1.00544e-05 2.31911e-06 -0.133829
0.905 0.01 0.000820562 -3.19236e-06 2.35168e-06 -0.138763
0.91 0.01 0.000826468 3.22439e-06 2.35104e-06 -0.141266
0.915 0.01 0.000820501 9.18676e-06 2.31944e-06 -0.141499
0.92 0.01 0.000803535 1.46839e-05 2.25917e-06 -0.139628
0.925 0.01 0.000776469 1.97019e-05 2.1726e-06 -0.135824
0.93 0.01 0.000740235 2.42227e-05 2.06216e-06 -0.130268
0.935 0.01 0.000695809 2.82223e-05 1.93038e-06 -0.123147
0.94 0.01 0.00064422 3.1669e-05 1.77994e-06 -0.114661
0.945 0.01 0.000586565 3.45206e-05 1.61369e-06 -0.105022
0.95 0.01 0.000524029 3.6722e-05 1.43474e-06 -0.0944605
0.955 0.01 0.000457906 3.82017e-05 1.24648e-06 -0.0832247
0.96 0.01 0.000389628 3.88674e-05 1.05272e-06 -0.0715871
0.965 0.01 0.000320796 3.86017e-05 8.57802e-07 -0.0598471
0.97 0.01 0.000253213 3.72569e-05 6.66705e-07 -0.0483339
0.975 0.01 0.000188918 3.46526e-05 4.85234e-07 -0.0374054
0.98 0.01 0.000130208 3.05815e-05 3.2018e-07 -0.0274406
0.985 0.01 7.96112e-05 2.4844e-05 1.79419e-07 -0.0188142
0.99 0.01 3.97672e-05 1.73693e-05 7.17401e-08 -0.0118343
0.995 0.01 1.30438e-05 8.5949e-06 5.7261e-09 -0.00660261
1 0.01 5.73081e-07 5.7261e-07 -1.42089e-08 -0.0027317
0 0.015 0 0 -0.000458465 0
0.005 0.015 0 0 0 -255.961
0.01 0.015 -0.152867 0.18488 -0.00180049 -79.2517
0.015 0.015 -0.20627 -0.0236306 -0.0018488 -16.6377
0.02 0.015 -0.204631 -0.0572898 -0.00156418 2.30779
0.025 0.015 -0.184616 -0.0522451 -0.0012759 7.91444
0.03 0.015 -0.161081 -0.0416723 -0.00104173 9.23536
0.035 0.015 -0.139016 -0.0325402 -0.00085918 9.1006
0.04 0.015 -0.119714 -0.0256378 -0.000716332 8.47708
0.045 0.015 -0.103216 -0.0205247 -0.000602802 7.71775
0.05 0.015 -0.0892089 -0.0166835 -0.000511085 6.95589
0.055 0.015 -0.0773215 -0.0137278 -0.000435967 6.24137
0.06 0.015 -0.06722 -0.0113978 -0.000373807 5.59097
0.065 0.015 -0.0586237 -0.00952289 -0.000321989 5.00803
0.07 0.015 -0.0513009 -0.0079893 -0.000278578 4.49036
0.075 0.015 -0.0450606 -0.0067195 -0.000242096 4.0336
0.08 0.015 -0.0397441 -0.0056587 -0.000211383 3.63265
0.085 0.015 -0.0352183 -0.00476681 -0.000185509 3.28228
0.09 0.015 -0.031371 -0.00401344 -0.000163715 2.97745
0.095 0.015 -0.0281067 -0.00337493 -0.000145374 2.71342
0.1 0.015 -0.025344 -0.00283235 -0.000129966 2.48584
0.105 0.015 -0.0230134 -0.00237029 -0.000117051 2.29069
0.11 0.015 -0.0210555 -0.00197605 -0.000106263 2.12437
0.115 0.015 -0.0194192 -0.00163904 -9.72904e-05 1.98362
0.12 0.015 -0.0180608 -0.00135036 -8.98722e-05 1.86553
0.125 0.015 -0.0169432 -0.00110251 -8.37868e-05 1.76752
0.13 0.015 -0.0160342 -0.000889178 -7.8847e-05 1.68728
0.135 0.015 -0.0153068 -0.000704994 -7.4895e-05 1.62281
0.14 0.015 -0.0147375 -0.000545422 -7.17971e-05 1.57232
0.145 0.015 -0.0143066 -0.000406618 -6.94407e-05 1.53426
0.15 0.015 -0.0139972 -0.000285327 -6.77308e-05 1.50727
0.155 0.015 -0.0137948 -0.000178793 -6.65874e-05 1.49017
0.16 0.015 -0.0136874 -8.46862e-05 -6.59429e-05 1.48193
0.165 0.015 -0.0136646 -1.04101e-06 -6.57405e-05 1.48166
0.17 0.015 -0.0137175 7.38011e-05 -6.59324e-05 1.48858
0.175 0.015 -0.0138387 0.000141235 -6.64785e-05 1.50202
0.18 0.015 -0.0140218 0.000202432 -6.73448e-05 1.5214
0.185 0.015 -0.0142615 0.000258374 -6.85028e-05 1.54622
0.19 0.015 -0.0145531 0.000309878 -6.99285e-05 1.57604
0.195 0.015 -0.0148928 0.000357625 -7.16015e-05 1.61048
0.2 0.015 -0.0152773 0.000402181 -7.35047e-05 1.64919
0.205 0.015 -0.0157035 0.000444009 -7.56233e-05 1.6919
0.21 0.015 -0.016169 0.000483492 -7.79448e-05 1.73835
0.215 0.015 -0.0166717 0.00052094 -8.04582e-05 1.78829
0.22 0.015 -0.0172096 0.000556603 -8.31541e-05 1.84154
0.225 0.015 -0.017781 0.000590682 -8.60242e-05 1.89789
0.23 0.015 -0.0183843 0.000623334 -8.90609e-05 1.95718
0.235 0.015 -0.0190182 0.000654681 -9.22575e-05 2.01925
0.24 0.015 -0.0196813 0.000684815 -9.56077e-05 2.08395
0.245 0.015 -0.0203723 0.000713803 -9.91057e-05 2.15114
0.25 0.015 -0.0210902 0.000741691 -0.000102746 2.22068
0.255 0.015 -0.0218337 0.000768506 -0.000106523 2.29244
0.26 0.015 -0.0226016 0.00079426 -0.000110431 2.36629
0.265 0.015 -0.023393 0.000818955 -0.000114465 2.44211
0.27 0.015 -0.0242066 0.00084258 -0.00011862 2.51976
0.275 0.015 -0.0250412 0.000865115 -0.000122891 2.59912
0.28 0.015 -0.0258959 0.000886536 -0.000127272 2.68006
0.285 0.015 -0.0267692 0.000906809 -0.000131756 2.76245
0.29 0.015 -0.0276602 0.000925898 -0.00013634 2.84615
0.295 0.015 -0.0285674 0.000943762 -0.000141015 2.93104
0.3 0.015 -0.0294896 0.000960357 -0.000145777 3.01696
0.305 0.015 -0.0304254 0.000975636 -0.000150619 3.10379
0.31 0.015 -0.0313736 0.000989551 -0.000155534 3.19139
0.315 0.015 -0.0323326 0.00100205 -0.000160514 3.27959
0.32 0.015 -0.0333012 0.0010131 -0.000165554 3.36827
0.325 0.015 -0.0342776 0.00102262 -0.000170645 3.45727
0.33 0.015 -0.0352605 0.00103059 -0.00017578 3.54643
0.335 0.015 -0.0362482 0.00103695 -0.000180951 3.6356
0.34 0.015 -0.0372391 0.00104166 -0.00018615 3.72462
0.345 0.015 -0.0382316 0.00104466 -0.000191368 3.81334
0.35 0.015 -0.039224 0.00104592 -0.000196597 3.90159
0.355 0.015 -0.0402145 0.0010454 -0.000201827 3.98921
0.36 0.015 -0.0412015 0.00104306 -0.000207051 4.07604
0.365 0.015 -0.0421831 0.00103885 -0.000212258 4.16192
0.37 0.015 -0.0431576 0.00103276 -0.000217439 4.24668
0.375 0.015 -0.0441231 0.00102475 -0.000222586 4.33015
0.38 0.015 -0.0450777 0.00101479 -0.000227687 4.41218
0.385 0.015 -0.0460198 0.00100287 -0.000232734 4.4926
0.39 0.015 -0.0469473 0.000988969 -0.000237716 4.57125
0.395 0.015 -0.0478584 0.000973071 -0.000242623 4.64797
0.4 0.015 -0.0487512 0.000955169 -0.000247446 4.7226
0.405 0.015 -0.049624 0.000935258 -0.000252175 4.79498
0.41 0.015 -0.0504747 0.000913339 -0.000256799 4.86496
0.415 0.015 -0.0513017 0.000889416 -0.000261309 4.93239
0.42 0.015 -0.052103 0.000863499 -0.000265693 4.99711
0.425 0.015 -0.0528768 0.000835602 -0.000269944 5.05899
0.43 0.015 -0.0536214 0.000805746 -0.00027405 5.11789
0.435 0.015 -0.054335 0.000773953 -0.000278001 5.17366
0.44 0.015 -0.0550159 0.000740255 -0.000281789 5.22618
0.445 0.015 -0.0556623 0.000704685 -0.000285404 5.27531
0.45 0.015 -0.0562727 0.000667284 -0.000288836 5.32094
0.455 0.015 -0.0568454 0.000628096 -0.000292077 5.36296
0.46 0.015 -0.0573789 0.000587173 -0.000295117 5.40124
0.465 0.015 -0.0578718 0.000544569 -0.000297949 5.43568
0.47 0.015 -0.0583225 0.000500347 -0.000300563 5.4662
0.475 0.015 -0.0587297 0.000454571 -0.000302952 5.49269
0.48 0.015 -0.0590922 0.000407313 -0.000305109 5.51507
0.485 0.015 -0.0594086 0.00035865 -0.000307026 5.53327
0.49 0.015 -0.059678 0.000308665 -0.000308696 5.54721
0.495 0.015 -0.0598991 0.000257444 -0.000310112 5.55683
0.5 0.015 -0.060071 0.000205079 -0.00031127 5.56209
0.505 0.015 -0.0601929 0.000151667 -0.000312163 5.56292
0.51 0.015 -0.0602639 9.73106e-05 -0.000312787 5.55931
0.515 0.015 -0.0602834 4.21165e-05 -0.000313137 5.5512
0.52 0.015 -0.0602507 -1.38038e-05 -0.000313208 5.5386
0.525 0.015 -0.0601654 -7.03346e-05 -0.000312999 5.52148
0.53 0.015 -0.0600271 -0.000127356 -0.000312505 5.49984
0.535 0.015 -0.0598356 -0.000184742 -0.000311725 5.47369
0.54 0.015 -0.0595906 -0.000242367 -0.000310658 5.44304
0.545 0.015 -0.0592922 -0.000300098 -0.000309302 5.40792
0.55 0.015 -0.0589405 -0.0003578 -0.000307657 5.36836
0.555 0.015 -0.0585356 -0.000415335 -0.000305724 5.32441
0.56 0.015 -0.0580779 -0.000472563 -0.000303504 5.27611
0.565 0.015 -0.0575678 -0.000529341 -0.000300999 5.22353
0.57 0.015 -0.057006 -0.000585525 -0.000298211 5.16674
0.575 0.015 -0.0563931 -0.000640969 -0.000295144 5.10582
0.58 0.015 -0.05573 -0.000695525 -0.000291801 5.04087
0.585 0.015 -0.0550177 -0.000749048 -0.000288189 4.97197
0.59 0.015 -0.0542572 -0.00080139 -0.000284311 4.89924
0.595 0.015 -0.0534499 -0.000852406 -0.000280175 4.82279
0.6 0.015 -0.052597 -0.00090195 -0.000275787 4.74275
0.605 0.015 -0.0517 -0.00094988 -0.000271155 4.65925
0.61 0.015 -0.0507605 -0.000996055 -0.000266288 4.57243
0.615 0.015 -0.0497802 -0.00104034 -0.000261195 4.48245
0.62 0.015 -0.048761 -0.0010826 -0.000255885 4.38945
0.625 0.015 -0.0477049 -0.00112271 -0.000250369 4.29361
0.63 0.015 -0.0466138 -0.00116055 -0.000244658 4.1951
0.635 0.015 -0.0454899 -0.00119599 -0.000238764 4.09409
0.64 0.015 -0.0443354 -0.00122893 -0.000232699 3.99077
0.645 0.015 -0.0431528 -0.00125927 -0.000226475 3.88532
0.65 0.015 -0.0419444 -0.00128691 -0.000220106 3.77795
0.655 0.015 -0.0407127 -0.00131176 -0.000213606 3.66885
0.66 0.015 -0.0394604 -0.00133375 -0.000206989 3.55823
0.665 0.015 -0.0381899 -0.00135281 -0.000200269 3.44629
0.67 0.015 -0.036904 -0.00136889 -0.000193461 3.33325
0.675 0.015 -0.0356055 -0.00138194 -0.00018658 3.21931
0.68 0.015 -0.034297 -0.00139193 -0.000179641 3.1047
0.685 0.015 -0.0329814 -0.00139882 -0.000172661 2.98963
0.69 0.015 -0.0316614 -0.00140262 -0.000165653 2.87431
0.695 0.015 -0.0303398 -0.00140333 -0.000158635 2.75897
0.7 0.015 -0.0290195 -0.00140095 -0.00015162 2.64382
0.705 0.015 -0.0277031 -0.00139552 -0.000144625 2.52907
0.71 0.015 -0.0263935 -0.00138708 -0.000137665 2.41493
0.715 0.015 -0.0250932 -0.00137567 -0.000130755 2.30162
0.72 0.015 -0.0238051 -0.00136137 -0.000123908 2.18934
0.725 0.015 -0.0225315 -0.00134425 -0.000117141 2.07829
0.73 0.015 -0.0212752 -0.00132439 -0.000110466 1.96868
0.735 0.015 -0.0200384 -0.0013019 -0.000103897 1.86068
0.74 0.015 -0.0188235 -0.00127689 -9.74471e-05 1.75448
0.745 0.015 -0.0176328 -0.00124947 -9.11283e-05 1.65027
0.75 0.015 -0.0164683 -0.00121979 -8.49524e-05 1.54821
0.755 0.015 -0.0153322 -0.00118797 -7.89305e-05 1.44847
0.76 0.015 -0.0142263 -0.00115417 -7.30728e-05 1.35119
0.765 0.015 -0.0131523 -0.00111853 -6.73888e-05 1.25652
0.77 0.015 -0.0121118 -0.00108123 -6.18874e-05 1.1646
0.775 0.015 -0.0111064 -0.00104242 -5.65765e-05 1.07554
0.78 0.015 -0.0101373 -0.00100228 -5.14632e-05 0.989469
0.785 0.015 -0.00920578 -0.000960975 -4.65538e-05 0.90648
0.79 0.015 -0.0083128 -0.000918682 -4.18535e-05 0.826667
0.795 0.015 -0.00745923 -0.000875577 -3.73669e-05 0.750109
0.8 0.015 -0.0066458 -0.000831834 -3.30977e-05 0.676875
0.805 0.015 -0.00587304 -0.000787628 -2.90486e-05 0.60702
0.81 0.015 -0.00514137 -0.000743129 -2.52215e-05 0.540589
0.815 0.015 -0.00445102 -0.000698507 -2.16173e-05 0.477616
0.82 0.015 -0.0038021 -0.000653923 -1.82364e-05 0.41812
0.825 0.015 -0.00319455 -0.000609535 -1.50781e-05 0.362113
0.83 0.015 -0.00262818 -0.000565496 -1.2141e-05 0.309592
0.835 0.015 -0.00210266 -0.00052195 -9.42309e-06 0.260544
0.84 0.015 -0.00161755 -0.000479032 -6.9215e-06 0.214945