Title=" Lid Driven Flow"
VARIABLES="X","Y","U","V","psi","xi"
ZONE T= "BOX", I= 201, J=201, F=POINT
0 0 0 0 0.0034652 0
0.005 0 0 0 0 0
0.01 0 0 0 0 0
0.015 0 0 0 0 161.891
0.02 0 0 0 0 176.121
0.025 0 0 0 0 155.598
0.03 0 0 0 0 133.202
0.035 0 0 0 0 115.678
0.04 0 0 0 0 102.82
0.045 0 0 0 0 93.2846
0.05 0 0 0 0 85.9619
0.055 0 0 0 0 80.1188
0.06 0 0 0 0 75.2967
0.065 0 0 0 0 71.2068
0.07 0 0 0 0 67.6611
0.075 0 0 0 0 64.5331
0.08 0 0 0 0 61.7343
0.085 0 0 0 0 59.201
0.09 0 0 0 0 56.8864
0.095 0 0 0 0 54.7552
0.1 0 0 0 0 52.7803
0.105 0 0 0 0 50.9405
0.11 0 0 0 0 49.2193
0.115 0 0 0 0 47.6031
0.12 0 0 0 0 46.0811
0.125 0 0 0 0 44.644
0.13 0 0 0 0 43.2843
0.135 0 0 0 0 41.9955
0.14 0 0 0 0 40.7719
0.145 0 0 0 0 39.6086
0.15 0 0 0 0 38.5013
0.155 0 0 0 0 37.4461
0.16 0 0 0 0 36.4394
0.165 0 0 0 0 35.4781
0.17 0 0 0 0 34.5592
0.175 0 0 0 0 33.6799
0.18 0 0 0 0 32.8378
0.185 0 0 0 0 32.0305
0.19 0 0 0 0 31.2558
0.195 0 0 0 0 30.5116
0.2 0 0 0 0 29.7961
0.205 0 0 0 0 29.1072
0.21 0 0 0 0 28.4434
0.215 0 0 0 0 27.803
0.22 0 0 0 0 27.1844
0.225 0 0 0 0 26.5862
0.23 0 0 0 0 26.0071
0.235 0 0 0 0 25.4456
0.24 0 0 0 0 24.9006
0.245 0 0 0 0 24.371
0.25 0 0 0 0 23.8556
0.255 0 0 0 0 23.3534
0.26 0 0 0 0 22.8634
0.265 0 0 0 0 22.3848
0.27 0 0 0 0 21.9166
0.275 0 0 0 0 21.4581
0.28 0 0 0 0 21.0086
0.285 0 0 0 0 20.5672
0.29 0 0 0 0 20.1334
0.295 0 0 0 0 19.7066
0.3 0 0 0 0 19.2861
0.305 0 0 0 0 18.8715
0.31 0 0 0 0 18.4623
0.315 0 0 0 0 18.0581
0.32 0 0 0 0 17.6584
0.325 0 0 0 0 17.2628
0.33 0 0 0 0 16.8711
0.335 0 0 0 0 16.483
0.34 0 0 0 0 16.0981
0.345 0 0 0 0 15.7163
0.35 0 0 0 0 15.3374
0.355 0 0 0 0 14.9611
0.36 0 0 0 0 14.5874
0.365 0 0 0 0 14.2161
0.37 0 0 0 0 13.8471
0.375 0 0 0 0 13.4804
0.38 0 0 0 0 13.1159
0.385 0 0 0 0 12.7536
0.39 0 0 0 0 12.3936
0.395 0 0 0 0 12.0358
0.4 0 0 0 0 11.6803
0.405 0 0 0 0 11.3272
0.41 0 0 0 0 10.9766
0.415 0 0 0 0 10.6285
0.42 0 0 0 0 10.2831
0.425 0 0 0 0 9.94054
0.43 0 0 0 0 9.60094
0.435 0 0 0 0 9.26448
0.44 0 0 0 0 8.93131
0.445 0 0 0 0 8.60164
0.45 0 0 0 0 8.27564
0.455 0 0 0 0 7.95351
0.46 0 0 0 0 7.63545
0.465 0 0 0 0 7.32167
0.47 0 0 0 0 7.01238
0.475 0 0 0 0 6.70778
0.48 0 0 0 0 6.40809
0.485 0 0 0 0 6.11351
0.49 0 0 0 0 5.82424
0.495 0 0 0 0 5.54048
0.5 0 0 0 0 5.26243
0.505 0 0 0 0 4.99026
0.51 0 0 0 0 4.72416
0.515 0 0 0 0 4.46428
0.52 0 0 0 0 4.2108
0.525 0 0 0 0 3.96383
0.53 0 0 0 0 3.72353
0.535 0 0 0 0 3.48999
0.54 0 0 0 0 3.26333
0.545 0 0 0 0 3.04364
0.55 0 0 0 0 2.83097
0.555 0 0 0 0 2.62539
0.56 0 0 0 0 2.42693
0.565 0 0 0 0 2.23562
0.57 0 0 0 0 2.05146
0.575 0 0 0 0 1.87444
0.58 0 0 0 0 1.70454
0.585 0 0 0 0 1.54171
0.59 0 0 0 0 1.38589
0.595 0 0 0 0 1.23703
0.6 0 0 0 0 1.09501
0.605 0 0 0 0 0.959764
0.61 0 0 0 0 0.831161
0.615 0 0 0 0 0.709082
0.62 0 0 0 0 0.593394
0.625 0 0 0 0 0.483953
0.63 0 0 0 0 0.380605
0.635 0 0 0 0 0.283192
0.64 0 0 0 0 0.191544
0.645 0 0 0 0 0.105489
0.65 0 0 0 0 0.0248475
0.655 0 0 0 0 -0.050562
0.66 0 0 0 0 -0.120926
0.665 0 0 0 0 -0.186433
0.67 0 0 0 0 -0.247273
0.675 0 0 0 0 -0.303638
0.68 0 0 0 0 -0.355719
0.685 0 0 0 0 -0.403711
0.69 0 0 0 0 -0.447805
0.695 0 0 0 0 -0.488193
0.7 0 0 0 0 -0.525067
0.705 0 0 0 0 -0.558618
0.71 0 0 0 0 -0.589034
0.715 0 0 0 0 -0.616505
0.72 0 0 0 0 -0.641216
0.725 0 0 0 0 -0.663351
0.73 0 0 0 0 -0.683091
0.735 0 0 0 0 -0.700614
0.74 0 0 0 0 -0.716094
0.745 0 0 0 0 -0.729697
0.75 0 0 0 0 -0.741587
0.755 0 0 0 0 -0.751915
0.76 0 0 0 0 -0.760827
0.765 0 0 0 0 -0.768456
0.77 0 0 0 0 -0.774925
0.775 0 0 0 0 -0.780341
0.78 0 0 0 0 -0.784797
0.785 0 0 0 0 -0.788371
0.79 0 0 0 0 -0.791124
0.795 0 0 0 0 -0.793096
0.8 0 0 0 0 -0.794312
0.805 0 0 0 0 -0.794778
0.81 0 0 0 0 -0.794478
0.815 0 0 0 0 -0.793383
0.82 0 0 0 0 -0.791444
0.825 0 0 0 0 -0.788596
0.83 0 0 0 0 -0.78476
0.835 0 0 0 0 -0.779847
0.84 0 0 0 0 -0.773756
0.845 0 0 0 0 -0.766378
0.85 0 0 0 0 -0.757603
0.855 0 0 0 0 -0.747316
0.86 0 0 0 0 -0.735408
0.865 0 0 0 0 -0.721773
0.87 0 0 0 0 -0.706316
0.875 0 0 0 0 -0.688954
0.88 0 0 0 0 -0.669622
0.885 0 0 0 0 -0.648273
0.89 0 0 0 0 -0.624886
0.895 0 0 0 0 -0.599465
0.9 0 0 0 0 -0.572047
0.905 0 0 0 0 -0.542698
0.91 0 0 0 0 -0.511523
0.915 0 0 0 0 -0.478662
0.92 0 0 0 0 -0.444294
0.925 0 0 0 0 -0.408642
0.93 0 0 0 0 -0.371966
0.935 0 0 0 0 -0.334571
0.94 0 0 0 0 -0.296804
0.945 0 0 0 0 -0.259054
0.95 0 0 0 0 -0.221754
0.955 0 0 0 0 -0.185375
0.96 0 0 0 0 -0.150435
0.965 0 0 0 0 -0.117489
0.97 0 0 0 0 -0.0871312
0.975 0 0 0 0 -0.0599934
0.98 0 0 0 0 -0.0367326
0.985 0 0 0 0 -0.0180125
0.99 0 0 0 0 -0.00445321
0.995 0 0 0 0 0.00348501
1 0 0 0 0 0.00577722
0 0.005 0 0 0 0
0.005 0.005 0 0 0 0
0.01 0.005 0 0 0 73.7283
0.015 0.005 0 0 0 62.0754
0.02 0.005 0 0 0 45.7372
0.025 0.005 0 0 0 33.9764
0.03 0.005 0 0 0 26.0778
0.035 0.005 0 0 0 20.6408
0.04 0.005 0 0 0 16.7254
0.045 0.005 0 0 0 13.7825
0.05 0.005 0 0 0 11.4943
0.055 0.005 0 0 0 9.67067
0.06 0.005 0 0 0 8.19219
0.065 0.005 0 0 0 6.97943
0.07 0.005 0 0 0 5.97684
0.075 0.005 0 0 0 5.14378
0.08 0.005 0 0 0 4.44941
0.085 0.005 0 0 0 3.86962
0.09 0.005 0 0 0 3.38518
0.095 0.005 0 0 0 2.98048
0.1 0.005 0 0 0 2.64272
0.105 0.005 0 0 0 2.36135
0.11 0.005 0 0 0 2.12759
0.115 0.005 0 0 0 1.93411
0.12 0.005 0 0 0 1.77481
0.125 0.005 0 0 0 1.64457
0.13 0.005 0 0 0 1.53913
0.135 0.005 0 0 0 1.45489
0.14 0.005 0 0 0 1.38886
0.145 0.005 0 0 0 1.33854
0.15 0.005 0 0 0 1.30182
0.155 0.005 0 0 0 1.27695
0.16 0.005 0 0 0 1.26246
0.165 0.005 0 0 0 1.25712
0.17 0.005 0 0 0 1.25992
0.175 0.005 0 0 0 1.27
0.18 0.005 0 0 0 1.28665
0.185 0.005 0 0 0 1.30927
0.19 0.005 0 0 0 1.33737
0.195 0.005 0 0 0 1.37053
0.2 0.005 0 0 0 1.4084
0.205 0.005 0 0 0 1.45069
0.21 0.005 0 0 0 1.49714
0.215 0.005 0 0 0 1.54754
0.22 0.005 0 0 0 1.60172
0.225 0.005 0 0 0 1.6595
0.23 0.005 0 0 0 1.72075
0.235 0.005 0 0 0 1.78533
0.24 0.005 0 0 0 1.85313
0.245 0.005 0 0 0 1.92405
0.25 0.005 0 0 0 1.99797
0.255 0.005 0 0 0 2.0748
0.26 0.005 0 0 0 2.15444
0.265 0.005 0 0 0 2.23679
0.27 0.005 0 0 0 2.32176
0.275 0.005 0 0 0 2.40923
0.28 0.005 0 0 0 2.49912
0.285 0.005 0 0 0 2.5913
0.29 0.005 0 0 0 2.68567
0.295 0.005 0 0 0 2.78212
0.3 0.005 0 0 0 2.88053
0.305 0.005 0 0 0 2.98076
0.31 0.005 0 0 0 3.0827
0.315 0.005 0 0 0 3.1862
0.32 0.005 0 0 0 3.29112
0.325 0.005 0 0 0 3.39731
0.33 0.005 0 0 0 3.50462
0.335 0.005 0 0 0 3.61289
0.34 0.005 0 0 0 3.72196
0.345 0.005 0 0 0 3.83166
0.35 0.005 0 0 0 3.9418
0.355 0.005 0 0 0 4.05222
0.36 0.005 0 0 0 4.16272
0.365 0.005 0 0 0 4.27311
0.37 0.005 0 0 0 4.3832
0.375 0.005 0 0 0 4.49278
0.38 0.005 0 0 0 4.60167
0.385 0.005 0 0 0 4.70964
0.39 0.005 0 0 0 4.8165
0.395 0.005 0 0 0 4.92202
0.4 0.005 0 0 0 5.02601
0.405 0.005 0 0 0 5.12823
0.41 0.005 0 0 0 5.22848
0.415 0.005 0 0 0 5.32653
0.42 0.005 0 0 0 5.42217
0.425 0.005 0 0 0 5.51519
0.43 0.005 0 0 0 5.60537
0.435 0.005 0 0 0 5.69248
0.44 0.005 0 0 0 5.77633
0.445 0.005 0 0 0 5.8567
0.45 0.005 0 0 0 5.93338
0.455 0.005 0 0 0 6.00617
0.46 0.005 0 0 0 6.07487
0.465 0.005 0 0 0 6.13928
0.47 0.005 0 0 0 6.19923
0.475 0.005 0 0 0 6.25452
0.48 0.005 0 0 0 6.30498
0.485 0.005 0 0 0 6.35044
0.49 0.005 0 0 0 6.39075
0.495 0.005 0 0 0 6.42575
0.5 0.005 0 0 0 6.45529
0.505 0.005 0 0 0 6.47925
0.51 0.005 0 0 0 6.49751
0.515 0.005 0 0 0 6.50995
0.52 0.005 0 0 0 6.51648
0.525 0.005 0 0 0 6.517
0.53 0.005 0 0 0 6.51144
0.535 0.005 0 0 0 6.49975
0.54 0.005 0 0 0 6.48187
0.545 0.005 0 0 0 6.45778
0.55 0.005 0 0 0 6.42744
0.555 0.005 0 0 0 6.39087
0.56 0.005 0 0 0 6.34806
0.565 0.005 0 0 0 6.29906
0.57 0.005 0 0 0 6.2439
0.575 0.005 0 0 0 6.18265
0.58 0.005 0 0 0 6.11538
0.585 0.005 0 0 0 6.04218
0.59 0.005 0 0 0 5.96317
0.595 0.005 0 0 0 5.87848
0.6 0.005 0 0 0 5.78824
0.605 0.005 0 0 0 5.69261
0.61 0.005 0 0 0 5.59179
0.615 0.005 0 0 0 5.48595
0.62 0.005 0 0 0 5.3753
0.625 0.005 0 0 0 5.26007
0.63 0.005 0 0 0 5.14051
0.635 0.005 0 0 0 5.01685
0.64 0.005 0 0 0 4.88936
0.645 0.005 0 0 0 4.75833
0.65 0.005 0 0 0 4.62404
0.655 0.005 0 0 0 4.48679
0.66 0.005 0 0 0 4.3469
0.665 0.005 0 0 0 4.20467
0.67 0.005 0 0 0 4.06045
0.675 0.005 0 0 0 3.91455
0.68 0.005 0 0 0 3.76732
0.685 0.005 0 0 0 3.61909
0.69 0.005 0 0 0 3.47022
0.695 0.005 0 0 0 3.32103
0.7 0.005 0 0 0 3.17188
0.705 0.005 0 0 0 3.0231
0.71 0.005 0 0 0 2.87504
0.715 0.005 0 0 0 2.72802
0.72 0.005 0 0 0 2.58236
0.725 0.005 0 0 0 2.43839
0.73 0.005 0 0 0 2.29642
0.735 0.005 0 0 0 2.15673
0.74 0.005 0 0 0 2.01961
0.745 0.005 0 0 0 1.88534
0.75 0.005 0 0 0 1.75418
0.755 0.005 0 0 0 1.62635
0.76 0.005 0 0 0 1.5021
0.765 0.005 0 0 0 1.38163
0.77 0.005 0 0 0 1.26512
0.775 0.005 0 0 0 1.15276
0.78 0.005 0 0 0 1.04469
0.785 0.005 0 0 0 0.941044
0.79 0.005 0 0 0 0.841943
0.795 0.005 0 0 0 0.747477
0.8 0.005 0 0 0 0.657721
0.805 0.005 0 0 0 0.57273
0.81 0.005 0 0 0 0.492539
0.815 0.005 0 0 0 0.417166
0.82 0.005 0 0 0 0.346609
0.825 0.005 0 0 0 0.280849
0.83 0.005 0 0 0 0.219849
0.835 0.005 0 0 0 0.163557
0.84 0.005 0 0 0 0.111905
0.845 0.005 0 0 0 0.0648119
0.85 0.005 0 0 0 0.0221815
0.855 0.005 0 0 0 -0.0160933
0.86 0.005 0 0 0 -0.0501311
0.865 0.005 0 0 0 -0.0800604
0.87 0.005 0 0 0 -0.106018
0.875 0.005 0 0 0 -0.128151
0.88 0.005 0 0 0 -0.146609
0.885 0.005 0 0 0 -0.161551
0.89 0.005 0 0 0 -0.173139
0.895 0.005 0 0 0 -0.181541
0.9 0.005 0 0 0 -0.186928
0.905 0.005 0 0 0 -0.189473
0.91 0.005 0 0 0 -0.189354
0.915 0.005 0 0 0 -0.186751
0.92 0.005 0 0 0 -0.18185
0.925 0.005 0 0 0 -0.174839
0.93 0.005 0 0 0 -0.165914
0.935 0.005 0 0 0 -0.15528
0.94 0.005 0 0 0 -0.14315
0.945 0.005 0 0 0 -0.129756
0.95 0.005 0 0 0 -0.115345
0.955 0.005 0 0 0 -0.100191
0.96 0.005 0 0 0 -0.0846003
0.965 0.005 0 0 0 -0.0689212
0.97 0.005 0 0 0 -0.0535541
0.975 0.005 0 0 0 -0.0389654
0.98 0.005 0 0 0 -0.0257005
0.985 0.005 0 0 0 -0.0143921
0.99 0.005 0 0 0 -0.00574547
0.995 0.005 0 0 0 -0.000448957
1 0.005 0 0 0 0.00114525
0 0.01 0 0 0.00114525 0
0.005 0.01 0 0 0 -326.272
0.01 0.01 -0.180049 0.0775943 -0.000921604 -44.3992
0.015 0.01 -0.184881 -0.0349889 -0.000775943 9.53421
0.02 0.01 -0.15642 -0.0351238 -0.000571715 19.1196
0.025 0.01 -0.127592 -0.0245742 -0.000424705 18.9915
0.03 0.01 -0.104175 -0.0166695 -0.000325972 16.8229
0.035 0.01 -0.0859185 -0.0116905 -0.000258009 14.4875
0.04 0.01 -0.0716324 -0.00857283 -0.000209068 12.4137
0.045 0.01 -0.0602778 -0.00653894 -0.000172281 10.656
0.05 0.01 -0.0511043 -0.00513978 -0.000143678 9.17977
0.055 0.01 -0.0435908 -0.00412758 -0.000120883 7.93821
0.06 0.01 -0.0373731 -0.00336405 -0.000102402 6.88992
0.065 0.01 -0.0321899 -0.00276919 -8.72429e-05 6.00161
0.07 0.01 -0.0278475 -0.00229456 -7.47105e-05 5.24694
0.075 0.01 -0.0241983 -0.00190928 -6.42973e-05 4.60487
0.08 0.01 -0.0211262 -0.0015927 -5.56176e-05 4.05834
0.085 0.01 -0.0185381 -0.00133029 -4.83703e-05 3.5933
0.09 0.01 -0.0163583 -0.00111143 -4.23147e-05 3.19801
0.095 0.01 -0.014524 -0.000928066 -3.72559e-05 2.86259
0.1 0.01 -0.012983 -0.000773901 -3.3034e-05 2.57865
0.105 0.01 -0.0116915 -0.000643919 -2.95169e-05 2.33905
0.11 0.01 -0.0106128 -0.000534055 -2.65948e-05 2.13766
0.115 0.01 -0.00971571 -0.000440974 -2.41763e-05 1.96927
0.12 0.01 -0.00897414 -0.000361919 -2.21851e-05 1.82938
0.125 0.01 -0.00836588 -0.000294599 -2.05571e-05 1.71417
0.13 0.01 -0.00787223 -0.000237102 -1.92391e-05 1.62037
0.135 0.01 -0.00747737 -0.000187828 -1.81861e-05 1.54516
0.14 0.01 -0.00716794 -0.000145437 -1.73608e-05 1.48616
0.145 0.01 -0.00693268 -0.000108805 -1.67317e-05 1.44133
0.15 0.01 -0.00676207 -7.69913e-05 -1.62727e-05 1.40893
0.155 0.01 -0.0066481 -4.92041e-05 -1.59618e-05 1.38749
0.16 0.01 -0.00658403 -2.47812e-05 -1.57807e-05 1.37574
0.165 0.01 -0.00656417 -3.16756e-06 -1.5714e-05 1.37261
0.17 0.01 -0.00658374 1.6101e-05 -1.5749e-05 1.37721
0.175 0.01 -0.00663871 3.34124e-05 -1.5875e-05 1.38877
0.18 0.01 -0.00672571 4.909e-05 -1.60831e-05 1.40662
0.185 0.01 -0.00684188 6.34027e-05 -1.63659e-05 1.43022
0.19 0.01 -0.00698482 7.65738e-05 -1.67171e-05 1.45909
0.195 0.01 -0.0071525 8.87876e-05 -1.71316e-05 1.49282
0.2 0.01 -0.00734319 0.000100196 -1.7605e-05 1.53108
0.205 0.01 -0.00755543 0.000110924 -1.81336e-05 1.57357
0.21 0.01 -0.00778797 0.000121072 -1.87142e-05 1.62002
0.215 0.01 -0.00803971 0.000130724 -1.93443e-05 1.67022
0.22 0.01 -0.00830971 0.000139944 -2.00215e-05 1.72397
0.225 0.01 -0.00859714 0.000148785 -2.07437e-05 1.78109
0.23 0.01 -0.00890125 0.000157289 -2.15093e-05 1.84142
0.235 0.01 -0.00922135 0.000165486 -2.23166e-05 1.90482
0.24 0.01 -0.00955684 0.000173401 -2.31642e-05 1.97116
0.245 0.01 -0.00990712 0.000181049 -2.40506e-05 2.0403
0.25 0.01 -0.0102716 0.000188443 -2.49747e-05 2.11213
0.255 0.01 -0.0106498 0.000195588 -2.59351e-05 2.18653
0.26 0.01 -0.0110412 0.000202489 -2.69305e-05 2.26339
0.265 0.01 -0.0114452 0.000209143 -2.79599e-05 2.34259
0.27 0.01 -0.0118613 0.000215547 -2.9022e-05 2.42402
0.275 0.01 -0.012289 0.000221697 -3.01154e-05 2.50756
0.28 0.01 -0.0127277 0.000227584 -3.12389e-05 2.5931
0.285 0.01 -0.0131768 0.000233199 -3.23912e-05 2.68051
0.29 0.01 -0.0136358 0.000238531 -3.35709e-05 2.76968
0.295 0.01 -0.0141041 0.000243569 -3.47766e-05 2.86048
0.3 0.01 -0.014581 0.000248301 -3.60066e-05 2.95278
0.305 0.01 -0.0150659 0.000252712 -3.72596e-05 3.04645
0.31 0.01 -0.0155582 0.00025679 -3.85337e-05 3.14135
0.315 0.01 -0.0160571 0.00026052 -3.98275e-05 3.23733
0.32 0.01 -0.0165619 0.000263889 -4.1139e-05 3.33426
0.325 0.01 -0.0170718 0.000266881 -4.24664e-05 3.43199
0.33 0.01 -0.0175862 0.000269482 -4.38078e-05 3.53035
0.335 0.01 -0.0181042 0.000271678 -4.51612e-05 3.62919
0.34 0.01 -0.018625 0.000273455 -4.65245e-05 3.72835
0.345 0.01 -0.0191478 0.0002748 -4.78957e-05 3.82767
0.35 0.01 -0.0196716 0.000275699 -4.92726e-05 3.92697
0.355 0.01 -0.0201957 0.00027614 -5.06527e-05 4.02609
0.36 0.01 -0.020719 0.00027611 -5.2034e-05 4.12484
0.365 0.01 -0.0212408 0.000275598 -5.34138e-05 4.22305
0.37 0.01 -0.02176 0.000274595 -5.479e-05 4.32055
0.375 0.01 -0.0222757 0.000273089 -5.61598e-05 4.41714
0.38 0.01 -0.0227869 0.000271072 -5.75209e-05 4.51265
0.385 0.01 -0.0232927 0.000268537 -5.88705e-05 4.60688
0.39 0.01 -0.023792 0.000265476 -6.02062e-05 4.69966
0.395 0.01 -0.024284 0.000261883 -6.15253e-05 4.79079
0.4 0.01 -0.0247674 0.000257754 -6.28251e-05 4.88009
0.405 0.01 -0.0252415 0.000253086 -6.41029e-05 4.96737
0.41 0.01 -0.0257051 0.000247875 -6.5356e-05 5.05245
0.415 0.01 -0.0261572 0.000242122 -6.65816e-05 5.13514
0.42 0.01 -0.0265969 0.000235826 -6.77772e-05 5.21526
0.425 0.01 -0.0270231 0.000228988 -6.89399e-05 5.29263
0.43 0.01 -0.0274349 0.000221612 -7.00671e-05 5.36706
0.435 0.01 -0.0278313 0.000213702 -7.11561e-05 5.43839
0.44 0.01 -0.0282113 0.000205264 -7.22042e-05 5.50644
0.445 0.01 -0.028574 0.000196305 -7.32087e-05 5.57105
0.45 0.01 -0.0289184 0.000186832 -7.41672e-05 5.63204
0.455 0.01 -0.0292437 0.000176858 -7.50771e-05 5.68925
0.46 0.01 -0.0295489 0.000166392 -7.59358e-05 5.74255
0.465 0.01 -0.0298332 0.000155448 -7.6741e-05 5.79176
0.47 0.01 -0.0300958 0.000144041 -7.74904e-05 5.83677
0.475 0.01 -0.0303359 0.000132187 -7.81815e-05 5.87741
0.48 0.01 -0.0305526 0.000119903 -7.88123e-05 5.91358
0.485 0.01 -0.0307454 0.00010721 -7.93806e-05 5.94514
0.49 0.01 -0.0309135 9.41263e-05 -7.98844e-05 5.97199
0.495 0.01 -0.0310562 8.0676e-05 -8.03219e-05 5.99401
0.5 0.01 -0.031173 6.68824e-05 -8.06912e-05 6.01111
0.505 0.01 -0.0312633 5.27709e-05 -8.09907e-05 6.02321
0.51 0.01 -0.0313266 3.83684e-05 -8.12189e-05 6.03022
0.515 0.01 -0.0313625 2.37032e-05 -8.13744e-05 6.03207
0.52 0.01 -0.0313705 8.80497e-06 -8.1456e-05 6.02871
0.525 0.01 -0.0313503 -6.29505e-06 -8.14625e-05 6.02009
0.53 0.01 -0.0313017 -2.15644e-05 -8.13931e-05 6.00617
0.535 0.01 -0.0312244 -3.69692e-05 -8.12469e-05 5.98693
0.54 0.01 -0.0311183 -5.24745e-05 -8.10235e-05 5.96235
0.545 0.01 -0.0309833 -6.80441e-05 -8.07222e-05 5.93243
0.55 0.01 -0.0308194 -8.36407e-05 -8.03431e-05 5.89718
0.555 0.01 -0.0306265 -9.92261e-05 -7.98859e-05 5.85663
0.56 0.01 -0.0304049 -0.000114761 -7.93508e-05 5.81079
0.565 0.01 -0.0301547 -0.000130206 -7.87383e-05 5.75973
0.57 0.01 -0.0298761 -0.000145519 -7.80488e-05 5.7035
0.575 0.01 -0.0295696 -0.000160661 -7.72832e-05 5.64218
0.58 0.01 -0.0292355 -0.000175589 -7.64423e-05 5.57584
0.585 0.01 -0.0288742 -0.000190262 -7.55273e-05 5.50459
0.59 0.01 -0.0284864 -0.000204638 -7.45397e-05 5.42853
0.595 0.01 -0.0280726 -0.000218675 -7.3481e-05 5.34779
0.6 0.01 -0.0276336 -0.000232331 -7.2353e-05 5.26251
0.605 0.01 -0.0271701 -0.000245566 -7.11577e-05 5.17282
0.61 0.01 -0.026683 -0.000258339 -6.98974e-05 5.0789
0.615 0.01 -0.0261732 -0.000270611 -6.85744e-05 4.98092
0.62 0.01 -0.0256416 -0.000282343 -6.71913e-05 4.87905
0.625 0.01 -0.0250893 -0.000293498 -6.5751e-05 4.77349
0.63 0.01 -0.0245175 -0.00030404 -6.42564e-05 4.66444
0.635 0.01 -0.0239272 -0.000313935 -6.27106e-05 4.55213
0.64 0.01 -0.0233198 -0.000323151 -6.11171e-05 4.43677
0.645 0.01 -0.0226964 -0.000331657 -5.94792e-05 4.31859
0.65 0.01 -0.0220584 -0.000339425 -5.78005e-05 4.19785
0.655 0.01 -0.0214072 -0.000346431 -5.60849e-05 4.07478
0.66 0.01 -0.0207443 -0.000352652 -5.43363e-05 3.94965
0.665 0.01 -0.020071 -0.000358066 -5.25585e-05 3.82271
0.67 0.01 -0.0193888 -0.000362659 -5.07556e-05 3.69424
0.675 0.01 -0.0186993 -0.000366415 -4.89319e-05 3.5645
0.68 0.01 -0.018004 -0.000369325 -4.70915e-05 3.43377
0.685 0.01 -0.0173043 -0.000371381 -4.52387e-05 3.30232
0.69 0.01 -0.016602 -0.00037258 -4.33777e-05 3.17043
0.695 0.01 -0.0158985 -0.000372922 -4.15129e-05 3.03839
0.7 0.01 -0.0151954 -0.000372411 -3.96485e-05 2.90646
0.705 0.01 -0.0144942 -0.000371053 -3.77888e-05 2.77492
0.71 0.01 -0.0137964 -0.000368861 -3.5938e-05 2.64405
0.715 0.01 -0.0131036 -0.000365848 -3.41002e-05 2.51411
0.72 0.01 -0.0124172 -0.000362032 -3.22796e-05 2.38537
0.725 0.01 -0.0117387 -0.000357436 -3.04799e-05 2.25809
0.73 0.01 -0.0110694 -0.000352085 -2.87052e-05 2.13251
0.735 0.01 -0.0104108 -0.000346007 -2.69591e-05 2.00887
0.74 0.01 -0.00976402 -0.000339233 -2.52452e-05 1.88742
0.745 0.01 -0.0091304 -0.000331798 -2.35668e-05 1.76837
0.75 0.01 -0.0085111 -0.000323739 -2.19272e-05 1.65194
0.755 0.01 -0.00790722 -0.000315095 -2.03294e-05 1.53832
0.76 0.01 -0.0073198 -0.000305909 -1.87763e-05 1.42771
0.765 0.01 -0.0067498 -0.000296225 -1.72703e-05 1.32028
0.77 0.01 -0.00619811 -0.000286087 -1.5814e-05 1.21619
0.775 0.01 -0.00566551 -0.000275544 -1.44095e-05 1.11559
0.78 0.01 -0.00515274 -0.000264642 -1.30586e-05 1.01862
0.785 0.01 -0.0046604 -0.000253431 -1.17631e-05 0.925387
0.79 0.01 -0.00418906 -0.00024196 -1.05243e-05 0.835998
0.795 0.01 -0.00373915 -0.000230278 -9.34346e-06 0.750539
0.8 0.01 -0.00331105 -0.000218434 -8.22151e-06 0.669083
0.805 0.01 -0.00290504 -0.000206477 -7.15912e-06 0.591686
0.81 0.01 -0.0025213 -0.000194454 -6.15674e-06 0.518389
0.815 0.01 -0.00215994 -0.000182412 -5.21458e-06 0.449216
0.82 0.01 -0.00182098 -0.000170396 -4.33261e-06 0.38418
0.825 0.01 -0.00150436 -0.00015845 -3.51061e-06 0.323275
0.83 0.01 -0.00120995 -0.000146615 -2.74811e-06 0.266484
0.835 0.01 -0.000937531 -0.000134929 -2.04446e-06 0.213776
0.84 0.01 -0.000686825 -0.000123431 -1.39881e-06 0.165104
0.845 0.01 -0.000457483 -0.000112154 -8.10144e-07 0.120413
0.85 0.01 -0.000249093 -0.000101131 -2.77263e-07 0.0796338
0.855 0.01 -6.11851e-05 -9.03902e-05 2.01172e-07 0.0426862
0.86 0.01 0.000106763 -7.99582e-05 6.26645e-07 0.00948064
0.865 0.01 0.000255321 -6.98586e-05 1.00076e-06 -0.0200823
0.87 0.01 0.000385106 -6.01122e-05 1.32524e-06 -0.0461104
0.875 0.01 0.000496769 -5.07372e-05 1.60189e-06 -0.0687198
0.88 0.01 0.000591001 -4.17495e-05 1.83262e-06 -0.0880332
0.885 0.01 0.00066852 -3.31625e-05 2.01939e-06 -0.10418
0.89 0.01 0.000730073 -2.49878e-05 2.16425e-06 -0.117297
0.895 0.01 0.000776431 -1.72354e-05 2.26927e-06 -0.127523
0.9 0.01 0.000808386 -9.91399e-06 2.33661e-06 -0.135005
0.905 0.01 0.00082675 -3.03186e-06 2.36842e-06 -0.139895
0.91 0.01 0.000832357 3.40274e-06 2.36693e-06 -0.142347
0.915 0.01 0.000826059 9.3807e-06 2.3344e-06 -0.142522
0.92 0.01 0.000808733 1.48911e-05 2.27313e-06 -0.140588
0.925 0.01 0.000781282 1.99201e-05 2.18549e-06 -0.136717
0.93 0.01 0.000744645 2.44494e-05 2.07393e-06 -0.131089
0.935 0.01 0.000699802 2.84552e-05 1.941e-06 -0.123893
0.94 0.01 0.000647785 3.19053e-05 1.78938e-06 -0.115331
0.945 0.01 0.000589697 3.47575e-05 1.62195e-06 -0.105615
0.95 0.01 0.000526729 3.69566e-05 1.44181e-06 -0.0949757
0.955 0.01 0.000460182 3.84307e-05 1.25239e-06 -0.0836637
0.96 0.01 0.000391492 3.90871e-05 1.0575e-06 -0.0719523
0.965 0.01 0.000322269 3.88079e-05 8.61516e-07 -0.0601422
0.97 0.01 0.000254322 3.74448e-05 6.69427e-07 -0.0485639
0.975 0.01 0.000189701 3.48171e-05 4.87068e-07 -0.0375768
0.98 0.01 0.000130709 3.07167e-05 3.21257e-07 -0.0275613
0.985 0.01 7.98864e-05 2.49439e-05 1.79901e-07 -0.0188934
0.99 0.01 3.98799e-05 1.74289e-05 7.18184e-08 -0.0118815
0.995 0.01 1.30622e-05 8.61341e-06 5.61192e-09 -0.0066271
1 0.01 5.61725e-07 5.61192e-07 -1.43157e-08 -0.00273968
0 0.015 0 0 -0.00044938 0
0.005 0.015 0 0 0 -255.961
0.01 0.015 -0.152867 0.184881 -0.00180049 -79.2515
0.015 0.015 -0.206271 -0.0236293 -0.00184881 -16.6376
0.02 0.015 -0.204633 -0.0572888 -0.0015642 2.30762
0.025 0.015 -0.184618 -0.0522451 -0.00127592 7.91409
0.03 0.015 -0.161082 -0.0416735 -0.00104175 9.2349
0.035 0.015 -0.139015 -0.0325425 -0.000859185 9.10005
0.04 0.015 -0.119711 -0.0256408 -0.000716324 8.47644
0.045 0.015 -0.103211 -0.0205281 -0.000602778 7.71701
0.05 0.015 -0.0892004 -0.016687 -0.000511043 6.95503
0.055 0.015 -0.0773101 -0.0137311 -0.000435908 6.24037
0.06 0.015 -0.0672059 -0.0114009 -0.000373731 5.58983
0.065 0.015 -0.0586071 -0.00952561 -0.000321899 5.00674
0.07 0.015 -0.0512822 -0.0079916 -0.000278475 4.48894
0.075 0.015 -0.0450401 -0.00672137 -0.000241983 4.03206
0.08 0.015 -0.0397222 -0.00566015 -0.000211261 3.631
0.085 0.015 -0.0351953 -0.00476786 -0.000185381 3.28054
0.09 0.015 -0.0313472 -0.00401414 -0.000163583 2.97564
0.095 0.015 -0.0280823 -0.00337532 -0.00014524 2.71156
0.1 0.015 -0.0253194 -0.00283247 -0.00012983 2.48394
0.105 0.015 -0.0229888 -0.0023702 -0.000116915 2.28877
0.11 0.015 -0.021031 -0.00197578 -0.000106128 2.12245
0.115 0.015 -0.0193949 -0.00163862 -9.71571e-05 1.98171
0.12 0.015 -0.018037 -0.00134983 -8.97413e-05 1.86364
0.125 0.015 -0.0169198 -0.0011019 -8.36588e-05 1.76565
0.13 0.015 -0.0160115 -0.000888509 -7.87222e-05 1.68546
0.135 0.015 -0.0152846 -0.000704284 -7.47736e-05 1.62103
0.14 0.015 -0.014716 -0.000544686 -7.16794e-05 1.57059
0.145 0.015 -0.0142858 -0.000405868 -6.93267e-05 1.53259
0.15 0.015 -0.0139771 -0.00028457 -6.76206e-05 1.50566
0.155 0.015 -0.0137755 -0.000178035 -6.6481e-05 1.48863
0.16 0.015 -0.0136688 -8.39314e-05 -6.58403e-05 1.48045
0.165 0.015 -0.0136467 -2.90711e-07 -6.56416e-05 1.48025
0.17 0.015 -0.0137004 7.45465e-05 -6.58373e-05 1.48724
0.175 0.015 -0.0138223 0.000141977 -6.63871e-05 1.50076
0.18 0.015 -0.0140062 0.000203172 -6.72571e-05 1.52021
0.185 0.015 -0.0142466 0.000259113 -6.84188e-05 1.54511
0.19 0.015 -0.014539 0.00031062 -6.98482e-05 1.57501
0.195 0.015 -0.0148795 0.000358374 -7.15249e-05 1.60952
0.2 0.015 -0.0152646 0.000402938 -7.34319e-05 1.64832
0.205 0.015 -0.0156916 0.00044478 -7.55543e-05 1.69112
0.21 0.015 -0.016158 0.000484279 -7.78797e-05 1.73765
0.215 0.015 -0.0166615 0.000521746 -8.03971e-05 1.78768
0.22 0.015 -0.0172002 0.000557432 -8.30971e-05 1.84102
0.225 0.015 -0.0177725 0.000591536 -8.59714e-05 1.89746
0.23 0.015 -0.0183768 0.000624216 -8.90124e-05 1.95685
0.235 0.015 -0.0190116 0.000655595 -9.22135e-05 2.01902
0.24 0.015 -0.0196756 0.000685763 -9.55684e-05 2.08383
0.245 0.015 -0.0203677 0.000714788 -9.90711e-05 2.15112
0.25 0.015 -0.0210866 0.000742713 -0.000102716 2.22077
0.255 0.015 -0.0218311 0.000769568 -0.000106498 2.29265
0.26 0.015 -0.0226002 0.000795365 -0.000110412 2.36662
0.265 0.015 -0.0233927 0.000820103 -0.000114452 2.44256
0.27 0.015 -0.0242075 0.000843773 -0.000118613 2.52034
0.275 0.015 -0.0250434 0.000866355 -0.00012289 2.59983
0.28 0.015 -0.0258993 0.000887823 -0.000127277 2.6809
0.285 0.015 -0.026774 0.000908145 -0.000131768 2.76343
0.29 0.015 -0.0276663 0.000927283 -0.000136358 2.84727
0.295 0.015 -0.0285749 0.000945196 -0.000141041 2.9323
0.3 0.015 -0.0294986 0.000961841 -0.00014581 3.01837
0.305 0.015 -0.030436 0.00097717 -0.000150659 3.10536
0.31 0.015 -0.0313857 0.000991136 -0.000155582 3.1931
0.315 0.015 -0.0323464 0.00100369 -0.000160571 3.28147
0.32 0.015 -0.0333165 0.00101478 -0.000165619 3.37031
0.325 0.015 -0.0342947 0.00102436 -0.000170718 3.45947
0.33 0.015 -0.0352793 0.00103238 -0.000175862 3.5488
0.335 0.015 -0.0362688 0.00103879 -0.000181042 3.63814
0.34 0.015 -0.0372615 0.00104354 -0.00018625 3.72734
0.345 0.015 -0.0382559 0.00104659 -0.000191478 3.81624
0.35 0.015 -0.0392502 0.0010479 -0.000196716 3.90467
0.355 0.015 -0.0402427 0.00104742 -0.000201957 3.99247
0.36 0.015 -0.0412316 0.00104512 -0.00020719 4.07949
0.365 0.015 -0.0422152 0.00104096 -0.000212408 4.16555
0.37 0.015 -0.0431918 0.0010349 -0.0002176 4.2505
0.375 0.015 -0.0441593 0.00102693 -0.000222757 4.33417
0.38 0.015 -0.0451161 0.00101701 -0.000227869 4.41639
0.385 0.015 -0.0460603 0.00100512 -0.000232927 4.49701
0.39 0.015 -0.0469899 0.00099125 -0.000237921 4.57585
0.395 0.015 -0.0479032 0.000975381 -0.00024284 4.65277
0.4 0.015 -0.0487983 0.000957504 -0.000247674 4.72759
0.405 0.015 -0.0496732 0.000937616 -0.000252415 4.80017
0.41 0.015 -0.0505263 0.000915717 -0.000257051 4.87034
0.415 0.015 -0.0513554 0.00089181 -0.000261572 4.93796
0.42 0.015 -0.052159 0.000865906 -0.000265969 5.00288
0.425 0.015 -0.0529351 0.000838018 -0.000270231 5.06496
0.43 0.015 -0.0536819 0.000808166 -0.000274349 5.12404
0.435 0.015 -0.0543978 0.000776375 -0.000278313 5.18001
0.44 0.015 -0.0550809 0.000742674 -0.000282113 5.23271
0.445 0.015 -0.0557295 0.000707096 -0.00028574 5.28203
0.45 0.015 -0.0563421 0.000669683 -0.000289184 5.32784
0.455 0.015 -0.0569171 0.000630479 -0.000292437 5.37004
0.46 0.015 -0.0574528 0.000589533 -0.000295489 5.40849
0.465 0.015 -0.0579477 0.000546903 -0.000298332 5.44311
0.47 0.015 -0.0584006 0.000502648 -0.000300958 5.47379
0.475 0.015 -0.0588099 0.000456834 -0.000303359 5.50044
0.48 0.015 -0.0591743 0.000409533 -0.000305527 5.52298
0.485 0.015 -0.0594928 0.000360822 -0.000307454 5.54133
0.49 0.015 -0.059764 0.000310781 -0.000309135 5.55542
0.495 0.015 -0.059987 0.000259499 -0.000310562 5.56519
0.5 0.015 -0.0601607 0.000207067 -0.00031173 5.57057
0.505 0.015 -0.0602843 0.000153583 -0.000312633 5.57154
0.51 0.015 -0.060357 9.91474e-05 -0.000313266 5.56804
0.515 0.015 -0.060378 4.3868e-05 -0.000313625 5.56005
0.52 0.015 -0.0603468 -1.21439e-05 -0.000313705 5.54755
0.525 0.015 -0.0602629 -6.87724e-05 -0.000313503 5.53052
0.53 0.015 -0.060126 -0.000125897 -0.000313017 5.50897
0.535 0.015 -0.0599356 -0.000183394 -0.000312245 5.4829
0.54 0.015 -0.0596917 -0.000241135 -0.000311184 5.45232
0.545 0.015 -0.0593943 -0.000298988 -0.000309833 5.41725
0.55 0.015 -0.0590434 -0.000356818 -0.000308194 5.37774
0.555 0.015 -0.0586393 -0.000414487 -0.000306265 5.33382
0.56 0.015 -0.0581821 -0.000471854 -0.000304049 5.28555
0.565 0.015 -0.0576726 -0.000528777 -0.000301547 5.23299
0.57 0.015 -0.0571111 -0.000585109 -0.000298762 5.17621
0.575 0.015 -0.0564984 -0.000640706 -0.000295696 5.11528
0.58 0.015 -0.0558354 -0.000695421 -0.000292355 5.0503
0.585 0.015 -0.055123 -0.000749105 -0.000288742 4.98138
0.59 0.015 -0.0543623 -0.000801612 -0.000284864 4.9086
0.595 0.015 -0.0535545 -0.000852795 -0.000280726 4.8321
0.6 0.015 -0.0527011 -0.000902508 -0.000276336 4.75199
0.605 0.015 -0.0518034 -0.00095061 -0.000271701 4.66841
0.61 0.015 -0.050863 -0.000996958 -0.00026683 4.5815
0.615 0.015 -0.0498818 -0.00104142 -0.000261732 4.49142
0.62 0.015 -0.0488614 -0.00108385 -0.000256416 4.39831
0.625 0.015 -0.047804 -0.00112413 -0.000250894 4.30234
0.63 0.015 -0.0467114 -0.00116214 -0.000245175 4.20369
0.635 0.015 -0.0455859 -0.00119775 -0.000239272 4.10253
0.64 0.015 -0.0444297 -0.00123085 -0.000233198 3.99905
0.645 0.015 -0.0432451 -0.00126135 -0.000226964 3.89343
0.65 0.015 -0.0420347 -0.00128915 -0.000220584 3.78588
0.655 0.015 -0.0408008 -0.00131415 -0.000214073 3.67659
0.66 0.015 -0.0395461 -0.00133629 -0.000207443 3.56576
0.665 0.015 -0.0382732 -0.00135549 -0.00020071 3.45361
0.67 0.015 -0.0369848 -0.0013717 -0.000193888 3.34035
0.675 0.015 -0.0356835 -0.00138487 -0.000186993 3.22618
0.68 0.015 -0.0343723 -0.00139496 -0.00018004 3.11134
0.685 0.015 -0.0330538 -0.00140196 -0.000173044 2.99602
0.69 0.015 -0.0317308 -0.00140586 -0.00016602 2.88045
0.695 0.015 -0.0304062 -0.00140664 -0.000158985 2.76485
0.7 0.015 -0.0290828 -0.00140434 -0.000151954 2.64944
0.705 0.015 -0.0277632 -0.00139897 -0.000144942 2.53442
0.71 0.015 -0.0264504 -0.00139057 -0.000137964 2.42002
0.715 0.015 -0.0251469 -0.0013792 -0.000131036 2.30644
0.72 0.015 -0.0238554 -0.00136491 -0.000124172 2.19389
0.725 0.015 -0.0225786 -0.0013478 -0.000117387 2.08256
0.73 0.015 -0.0213189 -0.00132794 -0.000110695 1.97267
0.735 0.015 -0.0200789 -0.00130543 -0.000104108 1.8644
0.74 0.015 -0.0188607 -0.00128039 -9.76403e-05 1.75793
0.745 0.015 -0.0176668 -0.00125293 -9.13041e-05 1.65345
0.75 0.015 -0.0164992 -0.00122319 -8.51111e-05 1.55112
0.755 0.015 -0.0153599 -0.0011913 -7.90723e-05 1.45112
0.76 0.015 -0.0142509 -0.00115742 -7.31981e-05 1.35358
0.765 0.015 -0.0131739 -0.0011217 -6.74981e-05 1.25866
0.77 0.015 -0.0121305 -0.00108429 -6.19811e-05 1.16649
0.775 0.015 -0.0111223 -0.00104538 -5.66552e-05 1.07719
0.78 0.015 -0.0101505 -0.00100511 -5.15274e-05 0.990887
0.785 0.015 -0.0092164 -0.00096368 -4.6604e-05 0.907675
0.79 0.015 -0.00832094 -0.000921252 -4.18906e-05 0.827647
0.795 0.015 -0.00746502 -0.000878005 -3.73915e-05 0.750884
0.8 0.015 -0.00664936 -0.000834115 -3.31105e-05 0.677454
0.805 0.015 -0.00587452 -0.000789756 -2.90504e-05 0.607415
0.81 0.015 -0.00514089 -0.000745102 -2.5213e-05 0.540811
0.815 0.015 -0.00444874 -0.000700321 -2.15994e-05 0.477675
0.82 0.015 -0.00379816 -0.000655576 -1.82098e-05 0.418029
0.825 0.015 -0.00318909 -0.000611028 -1.50436e-05 0.361882
0.83 0.015 -0.00262136 -0.000566828 -1.20995e-05 0.309234
0.835 0.015 -0.00209463 -0.000523121 -9.37529e-06 0.260071