Title=" Lid Driven Flow"
VARIABLES="X","Y","U","V","psi","xi"
ZONE T= "BOX", I= 201, J=201, F=POINT
0 0 0 0 0.00344649 0
0.005 0 0 0 0 0
0.01 0 0 0 0 0
0.015 0 0 0 0 161.891
0.02 0 0 0 0 176.121
0.025 0 0 0 0 155.598
0.03 0 0 0 0 133.203
0.035 0 0 0 0 115.678
0.04 0 0 0 0 102.821
0.045 0 0 0 0 93.2855
0.05 0 0 0 0 85.9627
0.055 0 0 0 0 80.1195
0.06 0 0 0 0 75.2973
0.065 0 0 0 0 71.207
0.07 0 0 0 0 67.661
0.075 0 0 0 0 64.5326
0.08 0 0 0 0 61.7333
0.085 0 0 0 0 59.1995
0.09 0 0 0 0 56.8844
0.095 0 0 0 0 54.7526
0.1 0 0 0 0 52.7771
0.105 0 0 0 0 50.9368
0.11 0 0 0 0 49.2151
0.115 0 0 0 0 47.5984
0.12 0 0 0 0 46.0759
0.125 0 0 0 0 44.6383
0.13 0 0 0 0 43.2782
0.135 0 0 0 0 41.989
0.14 0 0 0 0 40.765
0.145 0 0 0 0 39.6014
0.15 0 0 0 0 38.4938
0.155 0 0 0 0 37.4382
0.16 0 0 0 0 36.4313
0.165 0 0 0 0 35.4697
0.17 0 0 0 0 34.5506
0.175 0 0 0 0 33.6711
0.18 0 0 0 0 32.8289
0.185 0 0 0 0 32.0214
0.19 0 0 0 0 31.2466
0.195 0 0 0 0 30.5023
0.2 0 0 0 0 29.7866
0.205 0 0 0 0 29.0977
0.21 0 0 0 0 28.4339
0.215 0 0 0 0 27.7934
0.22 0 0 0 0 27.1748
0.225 0 0 0 0 26.5766
0.23 0 0 0 0 25.9974
0.235 0 0 0 0 25.4359
0.24 0 0 0 0 24.8909
0.245 0 0 0 0 24.3613
0.25 0 0 0 0 23.8459
0.255 0 0 0 0 23.3437
0.26 0 0 0 0 22.8537
0.265 0 0 0 0 22.3751
0.27 0 0 0 0 21.907
0.275 0 0 0 0 21.4485
0.28 0 0 0 0 20.9989
0.285 0 0 0 0 20.5575
0.29 0 0 0 0 20.1237
0.295 0 0 0 0 19.6969
0.3 0 0 0 0 19.2764
0.305 0 0 0 0 18.8618
0.31 0 0 0 0 18.4526
0.315 0 0 0 0 18.0483
0.32 0 0 0 0 17.6485
0.325 0 0 0 0 17.253
0.33 0 0 0 0 16.8612
0.335 0 0 0 0 16.473
0.34 0 0 0 0 16.0881
0.345 0 0 0 0 15.7062
0.35 0 0 0 0 15.3272
0.355 0 0 0 0 14.9509
0.36 0 0 0 0 14.5771
0.365 0 0 0 0 14.2057
0.37 0 0 0 0 13.8366
0.375 0 0 0 0 13.4698
0.38 0 0 0 0 13.1052
0.385 0 0 0 0 12.7429
0.39 0 0 0 0 12.3827
0.395 0 0 0 0 12.0249
0.4 0 0 0 0 11.6693
0.405 0 0 0 0 11.3161
0.41 0 0 0 0 10.9654
0.415 0 0 0 0 10.6172
0.42 0 0 0 0 10.2718
0.425 0 0 0 0 9.92914
0.43 0 0 0 0 9.58948
0.435 0 0 0 0 9.25297
0.44 0 0 0 0 8.91977
0.445 0 0 0 0 8.59006
0.45 0 0 0 0 8.26404
0.455 0 0 0 0 7.9419
0.46 0 0 0 0 7.62384
0.465 0 0 0 0 7.31008
0.47 0 0 0 0 7.00082
0.475 0 0 0 0 6.69626
0.48 0 0 0 0 6.39663
0.485 0 0 0 0 6.10211
0.49 0 0 0 0 5.81293
0.495 0 0 0 0 5.52927
0.5 0 0 0 0 5.25133
0.505 0 0 0 0 4.9793
0.51 0 0 0 0 4.71334
0.515 0 0 0 0 4.45363
0.52 0 0 0 0 4.20031
0.525 0 0 0 0 3.95354
0.53 0 0 0 0 3.71344
0.535 0 0 0 0 3.48012
0.54 0 0 0 0 3.25369
0.545 0 0 0 0 3.03423
0.55 0 0 0 0 2.82182
0.555 0 0 0 0 2.6165
0.56 0 0 0 0 2.41831
0.565 0 0 0 0 2.22729
0.57 0 0 0 0 2.04342
0.575 0 0 0 0 1.8667
0.58 0 0 0 0 1.6971
0.585 0 0 0 0 1.53457
0.59 0 0 0 0 1.37907
0.595 0 0 0 0 1.23052
0.6 0 0 0 0 1.08883
0.605 0 0 0 0 0.953895
0.61 0 0 0 0 0.82561
0.615 0 0 0 0 0.703849
0.62 0 0 0 0 0.588476
0.625 0 0 0 0 0.479348
0.63 0 0 0 0 0.376311
0.635 0 0 0 0 0.279202
0.64 0 0 0 0 0.187855
0.645 0 0 0 0 0.102095
0.65 0 0 0 0 0.0217432
0.655 0 0 0 0 -0.0533841
0.66 0 0 0 0 -0.123473
0.665 0 0 0 0 -0.188712
0.67 0 0 0 0 -0.249293
0.675 0 0 0 0 -0.305407
0.68 0 0 0 0 -0.357247
0.685 0 0 0 0 -0.405006
0.69 0 0 0 0 -0.448877
0.695 0 0 0 0 -0.489051
0.7 0 0 0 0 -0.525721
0.705 0 0 0 0 -0.559078
0.71 0 0 0 0 -0.58931
0.715 0 0 0 0 -0.616606
0.72 0 0 0 0 -0.641153
0.725 0 0 0 0 -0.663133
0.73 0 0 0 0 -0.682728
0.735 0 0 0 0 -0.700115
0.74 0 0 0 0 -0.715467
0.745 0 0 0 0 -0.728952
0.75 0 0 0 0 -0.740731
0.755 0 0 0 0 -0.750955
0.76 0 0 0 0 -0.75977
0.765 0 0 0 0 -0.767308
0.77 0 0 0 0 -0.77369
0.775 0 0 0 0 -0.779024
0.78 0 0 0 0 -0.783401
0.785 0 0 0 0 -0.786899
0.79 0 0 0 0 -0.789576
0.795 0 0 0 0 -0.791475
0.8 0 0 0 0 -0.792618
0.805 0 0 0 0 -0.79301
0.81 0 0 0 0 -0.792636
0.815 0 0 0 0 -0.791467
0.82 0 0 0 0 -0.789452
0.825 0 0 0 0 -0.786529
0.83 0 0 0 0 -0.782618
0.835 0 0 0 0 -0.777631
0.84 0 0 0 0 -0.771466
0.845 0 0 0 0 -0.764018
0.85 0 0 0 0 -0.755176
0.855 0 0 0 0 -0.744828
0.86 0 0 0 0 -0.732864
0.865 0 0 0 0 -0.719182
0.87 0 0 0 0 -0.703686
0.875 0 0 0 0 -0.686297
0.88 0 0 0 0 -0.666949
0.885 0 0 0 0 -0.645599
0.89 0 0 0 0 -0.622226
0.895 0 0 0 0 -0.596835
0.9 0 0 0 0 -0.569463
0.905 0 0 0 0 -0.540178
0.91 0 0 0 0 -0.509085
0.915 0 0 0 0 -0.476323
0.92 0 0 0 0 -0.442072
0.925 0 0 0 0 -0.406551
0.93 0 0 0 0 -0.370022
0.935 0 0 0 0 -0.332788
0.94 0 0 0 0 -0.295192
0.945 0 0 0 0 -0.257621
0.95 0 0 0 0 -0.220505
0.955 0 0 0 0 -0.184313
0.96 0 0 0 0 -0.149557
0.965 0 0 0 0 -0.11679
0.97 0 0 0 0 -0.0866016
0.975 0 0 0 0 -0.0596185
0.98 0 0 0 0 -0.0364934
0.985 0 0 0 0 -0.0178851
0.99 0 0 0 0 -0.00440962
0.995 0 0 0 0 0.00347651
1 0 0 0 0 0.00574952
0 0.005 0 0 0 0
0.005 0.005 0 0 0 0
0.01 0.005 0 0 0 73.7283
0.015 0.005 0 0 0 62.0749
0.02 0.005 0 0 0 45.736
0.025 0.005 0 0 0 33.9748
0.03 0.005 0 0 0 26.0763
0.035 0.005 0 0 0 20.6398
0.04 0.005 0 0 0 16.7254
0.045 0.005 0 0 0 13.7836
0.05 0.005 0 0 0 11.4966
0.055 0.005 0 0 0 9.67416
0.06 0.005 0 0 0 8.19678
0.065 0.005 0 0 0 6.985
0.07 0.005 0 0 0 5.98324
0.075 0.005 0 0 0 5.15087
0.08 0.005 0 0 0 4.45703
0.085 0.005 0 0 0 3.87763
0.09 0.005 0 0 0 3.39345
0.095 0.005 0 0 0 2.9889
0.1 0.005 0 0 0 2.65121
0.105 0.005 0 0 0 2.36982
0.11 0.005 0 0 0 2.13598
0.115 0.005 0 0 0 1.94238
0.12 0.005 0 0 0 1.78291
0.125 0.005 0 0 0 1.65249
0.13 0.005 0 0 0 1.54684
0.135 0.005 0 0 0 1.46238
0.14 0.005 0 0 0 1.39613
0.145 0.005 0 0 0 1.34558
0.15 0.005 0 0 0 1.30863
0.155 0.005 0 0 0 1.28353
0.16 0.005 0 0 0 1.26882
0.165 0.005 0 0 0 1.26326
0.17 0.005 0 0 0 1.26585
0.175 0.005 0 0 0 1.27571
0.18 0.005 0 0 0 1.29215
0.185 0.005 0 0 0 1.31457
0.19 0.005 0 0 0 1.34246
0.195 0.005 0 0 0 1.37542
0.2 0.005 0 0 0 1.41308
0.205 0.005 0 0 0 1.45516
0.21 0.005 0 0 0 1.5014
0.215 0.005 0 0 0 1.55159
0.22 0.005 0 0 0 1.60554
0.225 0.005 0 0 0 1.66309
0.23 0.005 0 0 0 1.7241
0.235 0.005 0 0 0 1.78844
0.24 0.005 0 0 0 1.856
0.245 0.005 0 0 0 1.92665
0.25 0.005 0 0 0 2.0003
0.255 0.005 0 0 0 2.07684
0.26 0.005 0 0 0 2.15618
0.265 0.005 0 0 0 2.23822
0.27 0.005 0 0 0 2.32286
0.275 0.005 0 0 0 2.41
0.28 0.005 0 0 0 2.49953
0.285 0.005 0 0 0 2.59135
0.29 0.005 0 0 0 2.68535
0.295 0.005 0 0 0 2.7814
0.3 0.005 0 0 0 2.8794
0.305 0.005 0 0 0 2.9792
0.31 0.005 0 0 0 3.0807
0.315 0.005 0 0 0 3.18374
0.32 0.005 0 0 0 3.28818
0.325 0.005 0 0 0 3.39389
0.33 0.005 0 0 0 3.50069
0.335 0.005 0 0 0 3.60845
0.34 0.005 0 0 0 3.71698
0.345 0.005 0 0 0 3.82613
0.35 0.005 0 0 0 3.93571
0.355 0.005 0 0 0 4.04554
0.36 0.005 0 0 0 4.15544
0.365 0.005 0 0 0 4.26522
0.37 0.005 0 0 0 4.37469
0.375 0.005 0 0 0 4.48364
0.38 0.005 0 0 0 4.59188
0.385 0.005 0 0 0 4.69919
0.39 0.005 0 0 0 4.80538
0.395 0.005 0 0 0 4.91022
0.4 0.005 0 0 0 5.01351
0.405 0.005 0 0 0 5.11503
0.41 0.005 0 0 0 5.21457
0.415 0.005 0 0 0 5.31191
0.42 0.005 0 0 0 5.40683
0.425 0.005 0 0 0 5.49912
0.43 0.005 0 0 0 5.58857
0.435 0.005 0 0 0 5.67495
0.44 0.005 0 0 0 5.75806
0.445 0.005 0 0 0 5.83769
0.45 0.005 0 0 0 5.91363
0.455 0.005 0 0 0 5.98569
0.46 0.005 0 0 0 6.05366
0.465 0.005 0 0 0 6.11735
0.47 0.005 0 0 0 6.17658
0.475 0.005 0 0 0 6.23117
0.48 0.005 0 0 0 6.28093
0.485 0.005 0 0 0 6.32571
0.49 0.005 0 0 0 6.36535
0.495 0.005 0 0 0 6.39969
0.5 0.005 0 0 0 6.4286
0.505 0.005 0 0 0 6.45194
0.51 0.005 0 0 0 6.46961
0.515 0.005 0 0 0 6.48147
0.52 0.005 0 0 0 6.48745
0.525 0.005 0 0 0 6.48746
0.53 0.005 0 0 0 6.48141
0.535 0.005 0 0 0 6.46926
0.54 0.005 0 0 0 6.45096
0.545 0.005 0 0 0 6.42648
0.55 0.005 0 0 0 6.39579
0.555 0.005 0 0 0 6.35891
0.56 0.005 0 0 0 6.31584
0.565 0.005 0 0 0 6.26661
0.57 0.005 0 0 0 6.21127
0.575 0.005 0 0 0 6.14988
0.58 0.005 0 0 0 6.08252
0.585 0.005 0 0 0 6.00929
0.59 0.005 0 0 0 5.93029
0.595 0.005 0 0 0 5.84566
0.6 0.005 0 0 0 5.75553
0.605 0.005 0 0 0 5.66008
0.61 0.005 0 0 0 5.55948
0.615 0.005 0 0 0 5.45391
0.62 0.005 0 0 0 5.3436
0.625 0.005 0 0 0 5.22876
0.63 0.005 0 0 0 5.10963
0.635 0.005 0 0 0 4.98646
0.64 0.005 0 0 0 4.85952
0.645 0.005 0 0 0 4.72908
0.65 0.005 0 0 0 4.59544
0.655 0.005 0 0 0 4.45888
0.66 0.005 0 0 0 4.31973
0.665 0.005 0 0 0 4.17829
0.67 0.005 0 0 0 4.03489
0.675 0.005 0 0 0 3.88986
0.68 0.005 0 0 0 3.74353
0.685 0.005 0 0 0 3.59624
0.69 0.005 0 0 0 3.44833
0.695 0.005 0 0 0 3.30014
0.7 0.005 0 0 0 3.15201
0.705 0.005 0 0 0 3.00427
0.71 0.005 0 0 0 2.85726
0.715 0.005 0 0 0 2.71131
0.72 0.005 0 0 0 2.56673
0.725 0.005 0 0 0 2.42384
0.73 0.005 0 0 0 2.28295
0.735 0.005 0 0 0 2.14434
0.74 0.005 0 0 0 2.00829
0.745 0.005 0 0 0 1.87508
0.75 0.005 0 0 0 1.74495
0.755 0.005 0 0 0 1.61815
0.76 0.005 0 0 0 1.4949
0.765 0.005 0 0 0 1.3754
0.77 0.005 0 0 0 1.25984
0.775 0.005 0 0 0 1.14838
0.78 0.005 0 0 0 1.04118
0.785 0.005 0 0 0 0.938374
0.79 0.005 0 0 0 0.840064
0.795 0.005 0 0 0 0.746347
0.8 0.005 0 0 0 0.657295
0.805 0.005 0 0 0 0.572961
0.81 0.005 0 0 0 0.49338
0.815 0.005 0 0 0 0.418567
0.82 0.005 0 0 0 0.348521
0.825 0.005 0 0 0 0.283222
0.83 0.005 0 0 0 0.222634
0.835 0.005 0 0 0 0.166704
0.84 0.005 0 0 0 0.115367
0.845 0.005 0 0 0 0.0685392
0.85 0.005 0 0 0 0.0261282
0.855 0.005 0 0 0 -0.0119727
0.86 0.005 0 0 0 -0.0458802
0.865 0.005 0 0 0 -0.0757213
0.87 0.005 0 0 0 -0.101631
0.875 0.005 0 0 0 -0.123754
0.88 0.005 0 0 0 -0.142238
0.885 0.005 0 0 0 -0.15724
0.89 0.005 0 0 0 -0.168919
0.895 0.005 0 0 0 -0.177441
0.9 0.005 0 0 0 -0.182975
0.905 0.005 0 0 0 -0.18569
0.91 0.005 0 0 0 -0.185763
0.915 0.005 0 0 0 -0.183371
0.92 0.005 0 0 0 -0.178697
0.925 0.005 0 0 0 -0.171927
0.93 0.005 0 0 0 -0.163254
0.935 0.005 0 0 0 -0.15288
0.94 0.005 0 0 0 -0.141016
0.945 0.005 0 0 0 -0.12789
0.95 0.005 0 0 0 -0.113746
0.955 0.005 0 0 0 -0.098855
0.96 0.005 0 0 0 -0.0835191
0.965 0.005 0 0 0 -0.0680818
0.97 0.005 0 0 0 -0.0529388
0.975 0.005 0 0 0 -0.0385508
0.98 0.005 0 0 0 -0.025457
0.985 0.005 0 0 0 -0.014283
0.99 0.005 0 0 0 -0.00572773
0.995 0.005 0 0 0 -0.000474728
1 0.005 0 0 0 0.00112112
0 0.01 0 0 0.00112112 0
0.005 0.01 0 0 0 -326.272
0.01 0.01 -0.180049 0.0775936 -0.000921604 -44.3996
0.015 0.01 -0.184879 -0.0349904 -0.000775936 9.53372
0.02 0.01 -0.156416 -0.0351251 -0.0005717 19.1192
0.025 0.01 -0.127587 -0.0245746 -0.000424685 18.9914
0.03 0.01 -0.104171 -0.0166687 -0.000325954 16.8231
0.035 0.01 -0.085917 -0.0116886 -0.000257998 14.488
0.04 0.01 -0.0716347 -0.00857028 -0.000209067 12.4148
0.045 0.01 -0.0602847 -0.00653604 -0.000172295 10.6577
0.05 0.01 -0.0511161 -0.00513679 -0.000143707 9.18221
0.055 0.01 -0.0436076 -0.00412471 -0.000120927 7.9414
0.06 0.01 -0.0373945 -0.00336144 -0.00010246 6.89383
0.065 0.01 -0.0322154 -0.00276693 -8.73125e-05 6.00618
0.07 0.01 -0.0278767 -0.00229267 -7.47905e-05 5.25211
0.075 0.01 -0.0242304 -0.00190777 -6.43858e-05 4.61055
0.08 0.01 -0.0211606 -0.00159155 -5.57128e-05 4.06443
0.085 0.01 -0.0185743 -0.00132947 -4.84703e-05 3.59971
0.09 0.01 -0.0163957 -0.00111091 -4.24181e-05 3.20466
0.095 0.01 -0.0145622 -0.000927797 -3.73612e-05 2.8694
0.1 0.01 -0.0130215 -0.000773843 -3.31401e-05 2.58555
0.105 0.01 -0.0117301 -0.000644033 -2.96228e-05 2.34597
0.11 0.01 -0.010651 -0.000534306 -2.66997e-05 2.14456
0.115 0.01 -0.0097535 -0.000441331 -2.42797e-05 1.9761
0.12 0.01 -0.00901125 -0.000362355 -2.22864e-05 1.83611
0.125 0.01 -0.00840218 -0.000295092 -2.06561e-05 1.72077
0.13 0.01 -0.00790762 -0.000237633 -1.93355e-05 1.62681
0.135 0.01 -0.00751178 -0.000188382 -1.82798e-05 1.55143
0.14 0.01 -0.00720132 -0.000146004 -1.74516e-05 1.49225
0.145 0.01 -0.006965 -0.000109376 -1.68197e-05 1.44722
0.15 0.01 -0.00679333 -7.75594e-05 -1.63579e-05 1.41463
0.155 0.01 -0.00667829 -4.97658e-05 -1.60441e-05 1.39298
0.16 0.01 -0.00661314 -2.53342e-05 -1.58602e-05 1.38102
0.165 0.01 -0.00659221 -3.71101e-06 -1.57908e-05 1.37769
0.17 0.01 -0.00661072 1.55668e-05 -1.58231e-05 1.38208
0.175 0.01 -0.00666464 3.28864e-05 -1.59464e-05 1.39343
0.18 0.01 -0.00675059 4.85704e-05 -1.61519e-05 1.41107
0.185 0.01 -0.00686571 6.28874e-05 -1.64321e-05 1.43445
0.19 0.01 -0.0070076 7.60601e-05 -1.67808e-05 1.46311
0.195 0.01 -0.00717423 8.82729e-05 -1.71927e-05 1.49663
0.2 0.01 -0.00736385 9.96776e-05 -1.76635e-05 1.53467
0.205 0.01 -0.00757501 0.000110399 -1.81895e-05 1.57693
0.21 0.01 -0.00780644 0.000120538 -1.87675e-05 1.62315
0.215 0.01 -0.00805705 0.000130177 -1.93949e-05 1.67311
0.22 0.01 -0.0083259 0.000139382 -2.00692e-05 1.72662
0.225 0.01 -0.00861213 0.000148206 -2.07887e-05 1.78349
0.23 0.01 -0.008915 0.000156689 -2.15513e-05 1.84356
0.235 0.01 -0.00923384 0.000164865 -2.23556e-05 1.9067
0.24 0.01 -0.009568 0.000172755 -2.31999e-05 1.97276
0.245 0.01 -0.00991691 0.000180377 -2.40831e-05 2.04161
0.25 0.01 -0.01028 0.000187743 -2.50037e-05 2.11315
0.255 0.01 -0.0106567 0.000194859 -2.59605e-05 2.18724
0.26 0.01 -0.0110465 0.000201729 -2.69523e-05 2.26378
0.265 0.01 -0.0114489 0.00020835 -2.79778e-05 2.34265
0.27 0.01 -0.0118634 0.000214721 -2.90358e-05 2.42374
0.275 0.01 -0.0122893 0.000220836 -3.0125e-05 2.50692
0.28 0.01 -0.0127262 0.000226688 -3.12442e-05 2.5921
0.285 0.01 -0.0131735 0.000232266 -3.23919e-05 2.67913
0.29 0.01 -0.0136306 0.000237561 -3.35668e-05 2.76791
0.295 0.01 -0.0140968 0.000242561 -3.47675e-05 2.85831
0.3 0.01 -0.0145717 0.000247254 -3.59924e-05 2.95019
0.305 0.01 -0.0150545 0.000251627 -3.72401e-05 3.04343
0.31 0.01 -0.0155445 0.000255666 -3.85087e-05 3.13788
0.315 0.01 -0.0160411 0.000259357 -3.97967e-05 3.23341
0.32 0.01 -0.0165436 0.000262686 -4.11023e-05 3.32987
0.325 0.01 -0.0170511 0.000265639 -4.24236e-05 3.42711
0.33 0.01 -0.017563 0.000268201 -4.37587e-05 3.52497
0.335 0.01 -0.0180784 0.000270358 -4.51056e-05 3.62331
0.34 0.01 -0.0185966 0.000272097 -4.64623e-05 3.72195
0.345 0.01 -0.0191166 0.000273404 -4.78266e-05 3.82074
0.35 0.01 -0.0196377 0.000274266 -4.91963e-05 3.9195
0.355 0.01 -0.0201589 0.00027467 -5.05693e-05 4.01806
0.36 0.01 -0.0206794 0.000274605 -5.1943e-05 4.11625
0.365 0.01 -0.0211982 0.000274059 -5.33153e-05 4.21389
0.37 0.01 -0.0217144 0.000273022 -5.46837e-05 4.3108
0.375 0.01 -0.022227 0.000271484 -5.60456e-05 4.4068
0.38 0.01 -0.0227351 0.000269437 -5.73985e-05 4.50171
0.385 0.01 -0.0232377 0.000266872 -5.87399e-05 4.59534
0.39 0.01 -0.0237339 0.000263784 -6.00672e-05 4.6875
0.395 0.01 -0.0242225 0.000260165 -6.13778e-05 4.77801
0.4 0.01 -0.0247027 0.000256013 -6.26689e-05 4.86669
0.405 0.01 -0.0251734 0.000251323 -6.3938e-05 4.95334
0.41 0.01 -0.0256336 0.000246094 -6.51822e-05 5.03779
0.415 0.01 -0.0260824 0.000240324 -6.63989e-05 5.11984
0.42 0.01 -0.0265187 0.000234013 -6.75854e-05 5.19932
0.425 0.01 -0.0269415 0.000227164 -6.87391e-05 5.27605
0.43 0.01 -0.0273499 0.00021978 -6.98571e-05 5.34985
0.435 0.01 -0.0277428 0.000211864 -7.09369e-05 5.42054
0.44 0.01 -0.0281194 0.000203423 -7.19758e-05 5.48795
0.445 0.01 -0.0284786 0.000194465 -7.29712e-05 5.55192
0.45 0.01 -0.0288197 0.000184997 -7.39205e-05 5.61229
0.455 0.01 -0.0291415 0.00017503 -7.48212e-05 5.66888
0.46 0.01 -0.0294434 0.000164576 -7.56708e-05 5.72156
0.465 0.01 -0.0297244 0.000153648 -7.6467e-05 5.77018
0.47 0.01 -0.0299837 0.000142261 -7.72073e-05 5.81458
0.475 0.01 -0.0302206 0.000130431 -7.78896e-05 5.85465
0.48 0.01 -0.0304342 0.000118176 -7.85117e-05 5.89024
0.485 0.01 -0.0306238 0.000105515 -7.90714e-05 5.92125
0.49 0.01 -0.0307889 9.24691e-05 -7.95669e-05 5.94755
0.495 0.01 -0.0309287 7.90609e-05 -7.99962e-05 5.96905
0.5 0.01 -0.0310426 6.53142e-05 -8.03575e-05 5.98565
0.505 0.01 -0.0311301 5.12545e-05 -8.06493e-05 5.99726
0.51 0.01 -0.0311908 3.69087e-05 -8.08701e-05 6.0038
0.515 0.01 -0.0312241 2.23052e-05 -8.10185e-05 6.00522
0.52 0.01 -0.0312297 7.47372e-06 -8.10932e-05 6.00144
0.525 0.01 -0.0312073 -7.55453e-06 -8.10933e-05 5.99243
0.53 0.01 -0.0311566 -2.27471e-05 -8.10177e-05 5.97815
0.535 0.01 -0.0310773 -3.80701e-05 -8.08659e-05 5.95858
0.54 0.01 -0.0309694 -5.34886e-05 -8.06371e-05 5.9337
0.545 0.01 -0.0308327 -6.89666e-05 -8.0331e-05 5.90351
0.55 0.01 -0.0306673 -8.44668e-05 -7.99475e-05 5.86802
0.555 0.01 -0.0304732 -9.99511e-05 -7.94864e-05 5.82726
0.56 0.01 -0.0302505 -0.000115381 -7.8948e-05 5.78126
0.565 0.01 -0.0299993 -0.000130715 -7.83327e-05 5.73007
0.57 0.01 -0.0297201 -0.000145915 -7.76409e-05 5.67375
0.575 0.01 -0.0294131 -0.000160939 -7.68736e-05 5.61237
0.58 0.01 -0.0290787 -0.000175746 -7.60316e-05 5.54603
0.585 0.01 -0.0287174 -0.000190295 -7.51162e-05 5.4748
0.59 0.01 -0.0283298 -0.000204543 -7.41287e-05 5.39882
0.595 0.01 -0.0279165 -0.000218451 -7.30708e-05 5.31819
0.6 0.01 -0.0274782 -0.000231975 -7.19442e-05 5.23307
0.605 0.01 -0.0270156 -0.000245077 -7.07511e-05 5.14359
0.61 0.01 -0.0265297 -0.000257716 -6.94935e-05 5.04991
0.615 0.01 -0.0260213 -0.000269853 -6.8174e-05 4.95221
0.62 0.01 -0.0254913 -0.00028145 -6.6795e-05 4.85067
0.625 0.01 -0.024941 -0.000292471 -6.53595e-05 4.74549
0.63 0.01 -0.0243713 -0.000302879 -6.38704e-05 4.63686
0.635 0.01 -0.0237834 -0.000312642 -6.23308e-05 4.52501
0.64 0.01 -0.0231785 -0.000321729 -6.0744e-05 4.41015
0.645 0.01 -0.022558 -0.000330108 -5.91136e-05 4.29252
0.65 0.01 -0.0219231 -0.000337754 -5.7443e-05 4.17236
0.655 0.01 -0.0212752 -0.000344641 -5.57361e-05 4.04991
0.66 0.01 -0.0206158 -0.000350748 -5.39966e-05 3.92544
0.665 0.01 -0.0199462 -0.000356054 -5.22286e-05 3.79919
0.67 0.01 -0.0192679 -0.000360544 -5.04361e-05 3.67145
0.675 0.01 -0.0185824 -0.000364204 -4.86232e-05 3.54246
0.68 0.01 -0.0178913 -0.000367026 -4.67941e-05 3.41252
0.685 0.01 -0.0171961 -0.000369001 -4.4953e-05 3.28188
0.69 0.01 -0.0164983 -0.000370127 -4.31042e-05 3.15083
0.695 0.01 -0.0157994 -0.000370405 -4.12518e-05 3.01964
0.7 0.01 -0.015101 -0.000369838 -3.94001e-05 2.88859
0.705 0.01 -0.0144046 -0.000368435 -3.75534e-05 2.75795
0.71 0.01 -0.0137118 -0.000366206 -3.57158e-05 2.62798
0.715 0.01 -0.013024 -0.000363167 -3.38914e-05 2.49896
0.72 0.01 -0.0123426 -0.000359335 -3.20842e-05 2.37114
0.725 0.01 -0.0116691 -0.000354734 -3.02981e-05 2.24479
0.73 0.01 -0.0110048 -0.000349386 -2.85369e-05 2.12013
0.735 0.01 -0.0103512 -0.000343323 -2.68042e-05 1.99742
0.74 0.01 -0.00970941 -0.000336573 -2.51037e-05 1.87689
0.745 0.01 -0.00908071 -0.000329173 -2.34385e-05 1.75875
0.75 0.01 -0.00846626 -0.000321158 -2.18119e-05 1.64321
0.755 0.01 -0.00786714 -0.000312568 -2.02269e-05 1.53047
0.76 0.01 -0.00728438 -0.000303445 -1.86863e-05 1.42073
0.765 0.01 -0.00671892 -0.000293832 -1.71925e-05 1.31414
0.77 0.01 -0.00617163 -0.000283774 -1.5748e-05 1.21087
0.775 0.01 -0.00564329 -0.000273318 -1.43548e-05 1.11106
0.78 0.01 -0.0051346 -0.00026251 -1.30148e-05 1.01485
0.785 0.01 -0.00464618 -0.000251399 -1.17297e-05 0.922349
0.79 0.01 -0.00417857 -0.000240034 -1.05008e-05 0.833658
0.795 0.01 -0.00373219 -0.000228462 -9.32934e-06 0.748863
0.8 0.01 -0.00330742 -0.000216733 -8.21619e-06 0.668033
0.805 0.01 -0.00290452 -0.000204894 -7.16201e-06 0.591225
0.81 0.01 -0.00252368 -0.000192992 -6.16724e-06 0.518477
0.815 0.01 -0.00216499 -0.000181073 -5.23208e-06 0.449814
0.82 0.01 -0.00182848 -0.000169181 -4.35651e-06 0.385246
0.825 0.01 -0.00151409 -0.000157359 -3.54027e-06 0.324769
0.83 0.01 -0.00122167 -0.000145647 -2.78292e-06 0.268364
0.835 0.01 -0.000951021 -0.000134084 -2.0838e-06 0.216
0.84 0.01 -0.000701858 -0.000122706 -1.44208e-06 0.167632
0.845 0.01 -0.000473837 -0.000111547 -8.56733e-07 0.123204
0.85 0.01 -0.00026655 -0.000100639 -3.26595e-07 0.0826475
0.855 0.01 -7.95353e-05 -9.00098e-05 1.49665e-07 0.0458838
0.86 0.01 8.77244e-05 -7.96851e-05 5.7351e-07 0.0128241
0.865 0.01 0.000235792 -6.96883e-05 9.46524e-07 -0.0166297
0.87 0.01 0.000365275 -6.00397e-05 1.2704e-06 -0.0425841
0.875 0.01 0.000476816 -5.07574e-05 1.54693e-06 -0.0651535
0.88 0.01 0.000571097 -4.18567e-05 1.77798e-06 -0.0844591
0.885 0.01 0.000648825 -3.3351e-05 1.9655e-06 -0.100629
0.89 0.01 0.000710736 -2.52516e-05 2.1115e-06 -0.113796
0.895 0.01 0.000757591 -1.75685e-05 2.21803e-06 -0.1241
0.9 0.01 0.00079017 -1.03102e-05 2.28719e-06 -0.131684
0.905 0.01 0.000809274 -3.48483e-06 2.32113e-06 -0.136698
0.91 0.01 0.000815725 2.8993e-06 2.32204e-06 -0.139294
0.915 0.01 0.000810363 8.8332e-06 2.29215e-06 -0.139633
0.92 0.01 0.000794053 1.4306e-05 2.23372e-06 -0.137876
0.925 0.01 0.000767687 1.9304e-05 2.14909e-06 -0.134196
0.93 0.01 0.000732188 2.38092e-05 2.04068e-06 -0.12877
0.935 0.01 0.000688524 2.77977e-05 1.911e-06 -0.121785
0.94 0.01 0.000637715 3.1238e-05 1.76271e-06 -0.113438
0.945 0.01 0.000580849 3.40883e-05 1.59863e-06 -0.103941
0.95 0.01 0.000519101 3.6294e-05 1.42183e-06 -0.0935205
0.955 0.01 0.000453753 3.77839e-05 1.23569e-06 -0.0824237
0.96 0.01 0.000386226 3.84667e-05 1.04399e-06 -0.0709207
0.965 0.01 0.000318109 3.82255e-05 8.51024e-07 -0.0593087
0.97 0.01 0.000251189 3.69139e-05 6.61736e-07 -0.0479141
0.975 0.01 0.000187491 3.43524e-05 4.81886e-07 -0.0370925
0.98 0.01 0.000129293 3.03348e-05 3.18212e-07 -0.0272202
0.985 0.01 7.91086e-05 2.46616e-05 1.78538e-07 -0.0186697
0.99 0.01 3.95614e-05 1.72604e-05 7.15966e-08 -0.011748
0.995 0.01 1.30101e-05 8.56106e-06 5.93406e-09 -0.00655791
1 0.01 5.93765e-07 5.93406e-07 -1.40141e-08 -0.00271713
0 0.015 0 0 -0.000475012 0
0.005 0.015 0 0 0 -255.961
0.01 0.015 -0.152866 0.184879 -0.00180049 -79.252
0.015 0.015 -0.206268 -0.023633 -0.00184879 -16.6378
0.02 0.015 -0.204628 -0.0572915 -0.00156416 2.3081
0.025 0.015 -0.184612 -0.052245 -0.00127587 7.91508
0.03 0.015 -0.161079 -0.04167 -0.00104171 9.2362
0.035 0.015 -0.139017 -0.0325361 -0.00085917 9.1016
0.04 0.015 -0.119719 -0.0256323 -0.000716347 8.47824
0.045 0.015 -0.103227 -0.0205185 -0.000602847 7.7191
0.05 0.015 -0.0892245 -0.0166771 -0.000511161 6.95748
0.055 0.015 -0.0773423 -0.0137216 -0.000436076 6.2432
0.06 0.015 -0.0672458 -0.0113922 -0.000373945 5.59307
0.065 0.015 -0.058654 -0.00951789 -0.000322154 5.01038
0.07 0.015 -0.0513351 -0.00798506 -0.000278766 4.49296
0.075 0.015 -0.0450981 -0.00671606 -0.000242304 4.03643
0.08 0.015 -0.0397843 -0.00565604 -0.000211606 3.63567
0.085 0.015 -0.0352605 -0.00476486 -0.000185743 3.28546
0.09 0.015 -0.0314147 -0.00401215 -0.000163957 2.98076
0.095 0.015 -0.0281513 -0.0033742 -0.000145622 2.71684
0.1 0.015 -0.0253891 -0.00283211 -0.000130215 2.48932
0.105 0.015 -0.0230586 -0.00237046 -0.0001173 2.29421
0.11 0.015 -0.0211004 -0.00197655 -0.00010651 2.1279
0.115 0.015 -0.0194636 -0.00163979 -9.75349e-05 1.98713
0.12 0.015 -0.0181045 -0.00135131 -9.01124e-05 1.86901
0.125 0.015 -0.016986 -0.00110362 -8.40218e-05 1.77093
0.13 0.015 -0.016076 -0.000890399 -7.90761e-05 1.69063
0.135 0.015 -0.0153474 -0.000706291 -7.51177e-05 1.62607
0.14 0.015 -0.0147769 -0.000546767 -7.20132e-05 1.57549
0.145 0.015 -0.0143447 -0.000407992 -6.965e-05 1.53732
0.15 0.015 -0.014034 -0.000286713 -6.79332e-05 1.51023
0.155 0.015 -0.0138304 -0.000180181 -6.67828e-05 1.49301
0.16 0.015 -0.0137216 -8.60698e-05 -6.61314e-05 1.48465
0.165 0.015 -0.0136974 -2.41692e-06 -6.59221e-05 1.48425
0.17 0.015 -0.013749 7.24334e-05 -6.61072e-05 1.49104
0.175 0.015 -0.0138688 0.000139874 -6.66464e-05 1.50435
0.18 0.015 -0.0140506 0.000201075 -6.75059e-05 1.52359
0.185 0.015 -0.0142889 0.000257016 -6.86571e-05 1.54827
0.19 0.015 -0.0145792 0.000308514 -7.0076e-05 1.57794
0.195 0.015 -0.0149175 0.00035625 -7.17422e-05 1.61223
0.2 0.015 -0.0153005 0.000400788 -7.36385e-05 1.6508
0.205 0.015 -0.0157252 0.000442593 -7.57501e-05 1.69335
0.21 0.015 -0.0161893 0.000482046 -7.80644e-05 1.73963
0.215 0.015 -0.0166904 0.000519458 -8.05705e-05 1.78942
0.22 0.015 -0.0172268 0.000555079 -8.32589e-05 1.84249
0.225 0.015 -0.0177965 0.00058911 -8.61213e-05 1.89867
0.23 0.015 -0.0183982 0.000621709 -8.915e-05 1.95778
0.235 0.015 -0.0190304 0.000652999 -9.23384e-05 2.01966
0.24 0.015 -0.0196917 0.000683071 -9.568e-05 2.08417
0.245 0.015 -0.0203809 0.000711992 -9.9169e-05 2.15116
0.25 0.015 -0.0210968 0.000739809 -0.0001028 2.2205
0.255 0.015 -0.0218383 0.00076655 -0.000106567 2.29205
0.26 0.015 -0.0226043 0.000792227 -0.000110465 2.36569
0.265 0.015 -0.0233935 0.000816842 -0.000114489 2.44128
0.27 0.015 -0.0242049 0.000840383 -0.000118634 2.5187
0.275 0.015 -0.0250373 0.000862834 -0.000122893 2.59783
0.28 0.015 -0.0258895 0.000884168 -0.000127262 2.67852
0.285 0.015 -0.0267604 0.000904352 -0.000131735 2.76065
0.29 0.015 -0.0276488 0.000923351 -0.000136306 2.8441
0.295 0.015 -0.0285534 0.000941124 -0.000140968 2.92872
0.3 0.015 -0.0294729 0.000957626 -0.000145717 3.01437
0.305 0.015 -0.030406 0.000972813 -0.000150545 3.10092
0.31 0.015 -0.0313513 0.000986636 -0.000155445 3.18823
0.315 0.015 -0.0323074 0.000999046 -0.000160411 3.27614
0.32 0.015 -0.0332729 0.00101 -0.000165436 3.36452
0.325 0.015 -0.0342462 0.00101943 -0.000170511 3.45321
0.33 0.015 -0.0352259 0.00102731 -0.00017563 3.54206
0.335 0.015 -0.0362103 0.00103358 -0.000180784 3.63091
0.34 0.015 -0.0371979 0.0010382 -0.000185966 3.71961
0.345 0.015 -0.0381869 0.00104112 -0.000191166 3.808
0.35 0.015 -0.0391758 0.00104229 -0.000196377 3.89592
0.355 0.015 -0.0401628 0.00104169 -0.000201589 3.98321
0.36 0.015 -0.0411461 0.00103927 -0.000206794 4.0697
0.365 0.015 -0.042124 0.00103499 -0.000211982 4.15523
0.37 0.015 -0.0430947 0.00102882 -0.000217144 4.23964
0.375 0.015 -0.0440564 0.00102074 -0.00022227 4.32277
0.38 0.015 -0.0450072 0.00101072 -0.000227351 4.40445
0.385 0.015 -0.0459453 0.000998737 -0.000232377 4.48451
0.39 0.015 -0.0468688 0.000984778 -0.000237339 4.5628
0.395 0.015 -0.0477759 0.000968829 -0.000242225 4.63916
0.4 0.015 -0.0486647 0.000950881 -0.000247027 4.71343
0.405 0.015 -0.0495334 0.000930929 -0.000251734 4.78545
0.41 0.015 -0.05038 0.000908975 -0.000256337 4.85508
0.415 0.015 -0.0512029 0.000885023 -0.000260824 4.92215
0.42 0.015 -0.0520001 0.000859084 -0.000265187 4.98652
0.425 0.015 -0.0527698 0.000831172 -0.000269415 5.04804
0.43 0.015 -0.0535102 0.000801307 -0.000273499 5.10659
0.435 0.015 -0.0542197 0.000769513 -0.000277428 5.16201
0.44 0.015 -0.0548964 0.000735822 -0.000281194 5.21418
0.445 0.015 -0.0555388 0.000700267 -0.000284787 5.26298
0.45 0.015 -0.0561451 0.00066289 -0.000288197 5.30828
0.455 0.015 -0.0567138 0.000623734 -0.000291416 5.34996
0.46 0.015 -0.0572434 0.000582852 -0.000294434 5.38792
0.465 0.015 -0.0577323 0.000540299 -0.000297244 5.42205
0.47 0.015 -0.0581792 0.000496137 -0.000299837 5.45226
0.475 0.015 -0.0585826 0.000450431 -0.000302206 5.47845
0.48 0.015 -0.0589414 0.000403254 -0.000304342 5.50054
0.485 0.015 -0.0592542 0.000354683 -0.000306239 5.51846
0.49 0.015 -0.05952 0.000304799 -0.000307889 5.53214
0.495 0.015 -0.0597377 0.00025369 -0.000309287 5.5415
0.5 0.015 -0.0599064 0.000201448 -0.000310426 5.54651
0.505 0.015 -0.0600251 0.000148171 -0.000311301 5.54712
0.51 0.015 -0.0600931 9.39612e-05 -0.000311908 5.54329
0.515 0.015 -0.0601097 3.89246e-05 -0.000312241 5.53498
0.52 0.015 -0.0600743 -1.6827e-05 -0.000312297 5.52219
0.525 0.015 -0.0599865 -7.31776e-05 -0.000312073 5.5049
0.53 0.015 -0.0598459 -0.000130007 -0.000311566 5.4831
0.535 0.015 -0.0596522 -0.000187191 -0.000310773 5.45681
0.54 0.015 -0.0594052 -0.000244602 -0.000309694 5.42604
0.545 0.015 -0.0591051 -0.000302108 -0.000308327 5.39082
0.55 0.015 -0.0587518 -0.000359575 -0.000306673 5.35117
0.555 0.015 -0.0583456 -0.000416865 -0.000304732 5.30715
0.56 0.015 -0.0578868 -0.000473838 -0.000302505 5.25881
0.565 0.015 -0.0573758 -0.000530352 -0.000299994 5.2062
0.57 0.015 -0.0568134 -0.000586262 -0.000297201 5.14941
0.575 0.015 -0.0562002 -0.000641425 -0.000294131 5.08851
0.58 0.015 -0.055537 -0.000695693 -0.000290787 5.02358
0.585 0.015 -0.0548249 -0.00074892 -0.000287175 4.95474
0.59 0.015 -0.0540649 -0.000800961 -0.000283298 4.88209
0.595 0.015 -0.0532583 -0.00085167 -0.000279165 4.80574
0.6 0.015 -0.0524063 -0.000900903 -0.000274782 4.72583
0.605 0.015 -0.0515106 -0.00094852 -0.000270156 4.64247
0.61 0.015 -0.0505727 -0.000994381 -0.000265297 4.55582
0.615 0.015 -0.0495943 -0.00103835 -0.000260213 4.46603
0.62 0.015 -0.0485773 -0.0010803 -0.000254914 4.37325
0.625 0.015 -0.0475236 -0.00112009 -0.00024941 4.27764
0.63 0.015 -0.0464351 -0.00115762 -0.000243713 4.17938
0.635 0.015 -0.0453142 -0.00119275 -0.000237834 4.07865
0.64 0.015 -0.0441631 -0.00122539 -0.000231786 3.97562
0.645 0.015 -0.0429839 -0.00125544 -0.00022558 3.87049
0.65 0.015 -0.0417793 -0.00128279 -0.000219231 3.76345
0.655 0.015 -0.0405517 -0.00130737 -0.000212753 3.65471
0.66 0.015 -0.0393035 -0.0013291 -0.000206158 3.54446
0.665 0.015 -0.0380376 -0.00134791 -0.000199462 3.43291
0.67 0.015 -0.0367564 -0.00136375 -0.000192679 3.32027
0.675 0.015 -0.0354628 -0.00137658 -0.000185824 3.20675
0.68 0.015 -0.0341594 -0.00138636 -0.000178913 3.09257
0.685 0.015 -0.032849 -0.00139307 -0.000171961 2.97795
0.69 0.015 -0.0315345 -0.0013967 -0.000164983 2.86309
0.695 0.015 -0.0302185 -0.00139726 -0.000157994 2.74821
0.7 0.015 -0.0289039 -0.00139476 -0.00015101 2.63354
0.705 0.015 -0.0275933 -0.00138922 -0.000144047 2.51927
0.71 0.015 -0.0262895 -0.0013807 -0.000137118 2.40563
0.715 0.015 -0.0249953 -0.00136923 -0.00013024 2.29281
0.72 0.015 -0.0237131 -0.00135489 -0.000123426 2.18104
0.725 0.015 -0.0224455 -0.00133775 -0.000116691 2.07049
0.73 0.015 -0.0211952 -0.0013179 -0.000110049 1.96138
0.735 0.015 -0.0199644 -0.00129545 -0.000103512 1.85388
0.74 0.015 -0.0187555 -0.00127049 -9.70941e-05 1.74818
0.745 0.015 -0.0175707 -0.00124316 -9.08072e-05 1.64447
0.75 0.015 -0.016412 -0.00121357 -8.46626e-05 1.54289
0.755 0.015 -0.0152816 -0.00118188 -7.86715e-05 1.44363
0.76 0.015 -0.0141813 -0.00114822 -7.28439e-05 1.34682
0.765 0.015 -0.0131127 -0.00111276 -6.71893e-05 1.25262
0.77 0.015 -0.0120776 -0.00107564 -6.17163e-05 1.16114
0.775 0.015 -0.0110773 -0.00103703 -5.64329e-05 1.07253
0.78 0.015 -0.0101132 -0.000997108 -5.1346e-05 0.986878
0.785 0.015 -0.00918638 -0.000956037 -4.64619e-05 0.904298
0.79 0.015 -0.00829792 -0.000913991 -4.17857e-05 0.824876
0.795 0.015 -0.00744865 -0.000871145 -3.73219e-05 0.748693
0.8 0.015 -0.00663927 -0.000827672 -3.30742e-05 0.675814
0.805 0.015 -0.00587033 -0.000783743 -2.90452e-05 0.606296
0.81 0.015 -0.00514221 -0.00073953 -2.52368e-05 0.540183
0.815 0.015 -0.00445516 -0.000695196 -2.16499e-05 0.477506
0.82 0.015 -0.00380926 -0.000650905 -1.82848e-05 0.418286
0.825 0.015 -0.00320447 -0.000606812 -1.51409e-05 0.362532
0.83 0.015 -0.00264059 -0.000563066 -1.22167e-05 0.310243
0.835 0.015 -0.0021173 -0.000519811 -9.51019e-06 0.261406
0.84 0.015 -0.00163414 -0.000477182 -7.01856e-06 0.215996