Title=" Lid Driven Flow"
VARIABLES="X","Y","U","V","psi","xi"
ZONE T= "BOX", I= 201, J=201, F=POINT
0 0 0 0 0.00289917 0
0.005 0 0 0 0 0
0.01 0 0 0 0 0
0.015 0 0 0 0 161.891
0.02 0 0 0 0 176.123
0.025 0 0 0 0 155.605
0.03 0 0 0 0 133.216
0.035 0 0 0 0 115.698
0.04 0 0 0 0 102.845
0.045 0 0 0 0 93.3135
0.05 0 0 0 0 85.9919
0.055 0 0 0 0 80.1474
0.06 0 0 0 0 75.3216
0.065 0 0 0 0 71.2255
0.07 0 0 0 0 67.6716
0.075 0 0 0 0 64.5336
0.08 0 0 0 0 61.7232
0.085 0 0 0 0 59.1772
0.09 0 0 0 0 56.849
0.095 0 0 0 0 54.7035
0.1 0 0 0 0 52.7139
0.105 0 0 0 0 50.8593
0.11 0 0 0 0 49.1232
0.115 0 0 0 0 47.4923
0.12 0 0 0 0 45.9557
0.125 0 0 0 0 44.5046
0.13 0 0 0 0 43.1313
0.135 0 0 0 0 41.8293
0.14 0 0 0 0 40.5932
0.145 0 0 0 0 39.418
0.15 0 0 0 0 38.2994
0.155 0 0 0 0 37.2335
0.16 0 0 0 0 36.2168
0.165 0 0 0 0 35.246
0.17 0 0 0 0 34.3182
0.175 0 0 0 0 33.4307
0.18 0 0 0 0 32.5808
0.185 0 0 0 0 31.7663
0.19 0 0 0 0 30.9849
0.195 0 0 0 0 30.2344
0.2 0 0 0 0 29.5129
0.205 0 0 0 0 28.8186
0.21 0 0 0 0 28.1496
0.215 0 0 0 0 27.5044
0.22 0 0 0 0 26.8812
0.225 0 0 0 0 26.2787
0.23 0 0 0 0 25.6955
0.235 0 0 0 0 25.1301
0.24 0 0 0 0 24.5813
0.245 0 0 0 0 24.0481
0.25 0 0 0 0 23.5291
0.255 0 0 0 0 23.0234
0.26 0 0 0 0 22.5301
0.265 0 0 0 0 22.048
0.27 0 0 0 0 21.5765
0.275 0 0 0 0 21.1146
0.28 0 0 0 0 20.6617
0.285 0 0 0 0 20.2169
0.29 0 0 0 0 19.7796
0.295 0 0 0 0 19.3492
0.3 0 0 0 0 18.9252
0.305 0 0 0 0 18.507
0.31 0 0 0 0 18.0941
0.315 0 0 0 0 17.6861
0.32 0 0 0 0 17.2826
0.325 0 0 0 0 16.8832
0.33 0 0 0 0 16.4876
0.335 0 0 0 0 16.0955
0.34 0 0 0 0 15.7067
0.345 0 0 0 0 15.3209
0.35 0 0 0 0 14.9379
0.355 0 0 0 0 14.5577
0.36 0 0 0 0 14.18
0.365 0 0 0 0 13.8048
0.37 0 0 0 0 13.432
0.375 0 0 0 0 13.0615
0.38 0 0 0 0 12.6934
0.385 0 0 0 0 12.3277
0.39 0 0 0 0 11.9644
0.395 0 0 0 0 11.6035
0.4 0 0 0 0 11.2451
0.405 0 0 0 0 10.8893
0.41 0 0 0 0 10.5363
0.415 0 0 0 0 10.1862
0.42 0 0 0 0 9.83901
0.425 0 0 0 0 9.49503
0.43 0 0 0 0 9.15439
0.435 0 0 0 0 8.81729
0.44 0 0 0 0 8.4839
0.445 0 0 0 0 8.15445
0.45 0 0 0 0 7.82913
0.455 0 0 0 0 7.50816
0.46 0 0 0 0 7.19175
0.465 0 0 0 0 6.88014
0.47 0 0 0 0 6.57353
0.475 0 0 0 0 6.27214
0.48 0 0 0 0 5.97619
0.485 0 0 0 0 5.68589
0.49 0 0 0 0 5.40144
0.495 0 0 0 0 5.12304
0.5 0 0 0 0 4.85087
0.505 0 0 0 0 4.58511
0.51 0 0 0 0 4.32593
0.515 0 0 0 0 4.07347
0.52 0 0 0 0 3.82787
0.525 0 0 0 0 3.58927
0.53 0 0 0 0 3.35775
0.535 0 0 0 0 3.13343
0.54 0 0 0 0 2.91637
0.545 0 0 0 0 2.70662
0.55 0 0 0 0 2.50424
0.555 0 0 0 0 2.30924
0.56 0 0 0 0 2.12162
0.565 0 0 0 0 1.94139
0.57 0 0 0 0 1.7685
0.575 0 0 0 0 1.60292
0.58 0 0 0 0 1.44457
0.585 0 0 0 0 1.29339
0.59 0 0 0 0 1.14928
0.595 0 0 0 0 1.01213
0.6 0 0 0 0 0.881835
0.605 0 0 0 0 0.75825
0.61 0 0 0 0 0.641237
0.615 0 0 0 0 0.530642
0.62 0 0 0 0 0.426302
0.625 0 0 0 0 0.328048
0.63 0 0 0 0 0.235702
0.635 0 0 0 0 0.14908
0.64 0 0 0 0 0.0679936
0.645 0 0 0 0 -0.00775068
0.65 0 0 0 0 -0.0783485
0.655 0 0 0 0 -0.143998
0.66 0 0 0 0 -0.2049
0.665 0 0 0 0 -0.261254
0.67 0 0 0 0 -0.313262
0.675 0 0 0 0 -0.361124
0.68 0 0 0 0 -0.40504
0.685 0 0 0 0 -0.44521
0.69 0 0 0 0 -0.48183
0.695 0 0 0 0 -0.515095
0.7 0 0 0 0 -0.5452
0.705 0 0 0 0 -0.572334
0.71 0 0 0 0 -0.596686
0.715 0 0 0 0 -0.618438
0.72 0 0 0 0 -0.637773
0.725 0 0 0 0 -0.654866
0.73 0 0 0 0 -0.669888
0.735 0 0 0 0 -0.683002
0.74 0 0 0 0 -0.694368
0.745 0 0 0 0 -0.704136
0.75 0 0 0 0 -0.712446
0.755 0 0 0 0 -0.71943
0.76 0 0 0 0 -0.725208
0.765 0 0 0 0 -0.729888
0.77 0 0 0 0 -0.733568
0.775 0 0 0 0 -0.736327
0.78 0 0 0 0 -0.738235
0.785 0 0 0 0 -0.739343
0.79 0 0 0 0 -0.73969
0.795 0 0 0 0 -0.739297
0.8 0 0 0 0 -0.738173
0.805 0 0 0 0 -0.736311
0.81 0 0 0 0 -0.733689
0.815 0 0 0 0 -0.730275
0.82 0 0 0 0 -0.726023
0.825 0 0 0 0 -0.720877
0.83 0 0 0 0 -0.714775
0.835 0 0 0 0 -0.707645
0.84 0 0 0 0 -0.699413
0.845 0 0 0 0 -0.690002
0.85 0 0 0 0 -0.679335
0.855 0 0 0 0 -0.667337
0.86 0 0 0 0 -0.653938
0.865 0 0 0 0 -0.639076
0.87 0 0 0 0 -0.622699
0.875 0 0 0 0 -0.604766
0.88 0 0 0 0 -0.585252
0.885 0 0 0 0 -0.564149
0.89 0 0 0 0 -0.541468
0.895 0 0 0 0 -0.51724
0.9 0 0 0 0 -0.491521
0.905 0 0 0 0 -0.46439
0.91 0 0 0 0 -0.435954
0.915 0 0 0 0 -0.406345
0.92 0 0 0 0 -0.375725
0.925 0 0 0 0 -0.344285
0.93 0 0 0 0 -0.312245
0.935 0 0 0 0 -0.279857
0.94 0 0 0 0 -0.247401
0.945 0 0 0 0 -0.21519
0.95 0 0 0 0 -0.183568
0.955 0 0 0 0 -0.15291
0.96 0 0 0 0 -0.123622
0.965 0 0 0 0 -0.0961439
0.97 0 0 0 0 -0.0709438
0.975 0 0 0 0 -0.04852
0.98 0 0 0 0 -0.0293925
0.985 0 0 0 0 -0.0140854
0.99 0 0 0 0 -0.00308601
0.995 0 0 0 0 0.00325385
1 0 0 0 0 0.00494787
0 0.005 0 0 0 0
0.005 0.005 0 0 0 0
0.01 0.005 0 0 0 73.7278
0.015 0.005 0 0 0 62.0601
0.02 0.005 0 0 0 45.7013
0.025 0.005 0 0 0 33.9282
0.03 0.005 0 0 0 26.0319
0.035 0.005 0 0 0 20.6113
0.04 0.005 0 0 0 16.7229
0.045 0.005 0 0 0 13.8132
0.05 0.005 0 0 0 11.5609
0.055 0.005 0 0 0 9.77288
0.06 0.005 0 0 0 8.32768
0.065 0.005 0 0 0 7.14461
0.07 0.005 0 0 0 6.16747
0.075 0.005 0 0 0 5.35538
0.08 0.005 0 0 0 4.67757
0.085 0.005 0 0 0 4.11022
0.09 0.005 0 0 0 3.63449
0.095 0.005 0 0 0 3.23525
0.1 0.005 0 0 0 2.90017
0.105 0.005 0 0 0 2.61915
0.11 0.005 0 0 0 2.38384
0.115 0.005 0 0 0 2.18732
0.12 0.005 0 0 0 2.0238
0.125 0.005 0 0 0 1.88846
0.13 0.005 0 0 0 1.77728
0.135 0.005 0 0 0 1.68685
0.14 0.005 0 0 0 1.61435
0.145 0.005 0 0 0 1.55738
0.15 0.005 0 0 0 1.51393
0.155 0.005 0 0 0 1.48232
0.16 0.005 0 0 0 1.46111
0.165 0.005 0 0 0 1.44911
0.17 0.005 0 0 0 1.44531
0.175 0.005 0 0 0 1.44884
0.18 0.005 0 0 0 1.45898
0.185 0.005 0 0 0 1.47511
0.19 0.005 0 0 0 1.49672
0.195 0.005 0 0 0 1.52336
0.2 0.005 0 0 0 1.55466
0.205 0.005 0 0 0 1.59027
0.21 0.005 0 0 0 1.62993
0.215 0.005 0 0 0 1.67339
0.22 0.005 0 0 0 1.72043
0.225 0.005 0 0 0 1.77086
0.23 0.005 0 0 0 1.82451
0.235 0.005 0 0 0 1.88122
0.24 0.005 0 0 0 1.94086
0.245 0.005 0 0 0 2.00328
0.25 0.005 0 0 0 2.06837
0.255 0.005 0 0 0 2.136
0.26 0.005 0 0 0 2.20606
0.265 0.005 0 0 0 2.27842
0.27 0.005 0 0 0 2.35298
0.275 0.005 0 0 0 2.42962
0.28 0.005 0 0 0 2.50823
0.285 0.005 0 0 0 2.58868
0.29 0.005 0 0 0 2.67085
0.295 0.005 0 0 0 2.75464
0.3 0.005 0 0 0 2.83989
0.305 0.005 0 0 0 2.9265
0.31 0.005 0 0 0 3.01432
0.315 0.005 0 0 0 3.10321
0.32 0.005 0 0 0 3.19304
0.325 0.005 0 0 0 3.28366
0.33 0.005 0 0 0 3.37491
0.335 0.005 0 0 0 3.46664
0.34 0.005 0 0 0 3.5587
0.345 0.005 0 0 0 3.65092
0.35 0.005 0 0 0 3.74314
0.355 0.005 0 0 0 3.83519
0.36 0.005 0 0 0 3.92689
0.365 0.005 0 0 0 4.01806
0.37 0.005 0 0 0 4.10854
0.375 0.005 0 0 0 4.19813
0.38 0.005 0 0 0 4.28666
0.385 0.005 0 0 0 4.37395
0.39 0.005 0 0 0 4.4598
0.395 0.005 0 0 0 4.54403
0.4 0.005 0 0 0 4.62645
0.405 0.005 0 0 0 4.70688
0.41 0.005 0 0 0 4.78514
0.415 0.005 0 0 0 4.86103
0.42 0.005 0 0 0 4.93438
0.425 0.005 0 0 0 5.00499
0.43 0.005 0 0 0 5.07271
0.435 0.005 0 0 0 5.13734
0.44 0.005 0 0 0 5.19873
0.445 0.005 0 0 0 5.2567
0.45 0.005 0 0 0 5.31108
0.455 0.005 0 0 0 5.36173
0.46 0.005 0 0 0 5.4085
0.465 0.005 0 0 0 5.45123
0.47 0.005 0 0 0 5.48979
0.475 0.005 0 0 0 5.52405
0.48 0.005 0 0 0 5.55389
0.485 0.005 0 0 0 5.57919
0.49 0.005 0 0 0 5.59985
0.495 0.005 0 0 0 5.61578
0.5 0.005 0 0 0 5.62689
0.505 0.005 0 0 0 5.6331
0.51 0.005 0 0 0 5.63435
0.515 0.005 0 0 0 5.63059
0.52 0.005 0 0 0 5.62178
0.525 0.005 0 0 0 5.60788
0.53 0.005 0 0 0 5.58888
0.535 0.005 0 0 0 5.56477
0.54 0.005 0 0 0 5.53557
0.545 0.005 0 0 0 5.50128
0.55 0.005 0 0 0 5.46195
0.555 0.005 0 0 0 5.41762
0.56 0.005 0 0 0 5.36835
0.565 0.005 0 0 0 5.31421
0.57 0.005 0 0 0 5.25528
0.575 0.005 0 0 0 5.19168
0.58 0.005 0 0 0 5.1235
0.585 0.005 0 0 0 5.05087
0.59 0.005 0 0 0 4.97393
0.595 0.005 0 0 0 4.89282
0.6 0.005 0 0 0 4.80771
0.605 0.005 0 0 0 4.71876
0.61 0.005 0 0 0 4.62616
0.615 0.005 0 0 0 4.5301
0.62 0.005 0 0 0 4.43078
0.625 0.005 0 0 0 4.32841
0.63 0.005 0 0 0 4.22321
0.635 0.005 0 0 0 4.1154
0.64 0.005 0 0 0 4.00522
0.645 0.005 0 0 0 3.89291
0.65 0.005 0 0 0 3.7787
0.655 0.005 0 0 0 3.66285
0.66 0.005 0 0 0 3.54561
0.665 0.005 0 0 0 3.42723
0.67 0.005 0 0 0 3.30796
0.675 0.005 0 0 0 3.18806
0.68 0.005 0 0 0 3.06778
0.685 0.005 0 0 0 2.94737
0.69 0.005 0 0 0 2.82709
0.695 0.005 0 0 0 2.70717
0.7 0.005 0 0 0 2.58787
0.705 0.005 0 0 0 2.46941
0.71 0.005 0 0 0 2.35203
0.715 0.005 0 0 0 2.23595
0.72 0.005 0 0 0 2.12139
0.725 0.005 0 0 0 2.00854
0.73 0.005 0 0 0 1.89761
0.735 0.005 0 0 0 1.78878
0.74 0.005 0 0 0 1.68223
0.745 0.005 0 0 0 1.57813
0.75 0.005 0 0 0 1.47663
0.755 0.005 0 0 0 1.37787
0.76 0.005 0 0 0 1.28198
0.765 0.005 0 0 0 1.18907
0.77 0.005 0 0 0 1.09926
0.775 0.005 0 0 0 1.01264
0.78 0.005 0 0 0 0.929273
0.785 0.005 0 0 0 0.849242
0.79 0.005 0 0 0 0.772596
0.795 0.005 0 0 0 0.699378
0.8 0.005 0 0 0 0.629616
0.805 0.005 0 0 0 0.563329
0.81 0.005 0 0 0 0.500525
0.815 0.005 0 0 0 0.441197
0.82 0.005 0 0 0 0.385333
0.825 0.005 0 0 0 0.332906
0.83 0.005 0 0 0 0.283884
0.835 0.005 0 0 0 0.238221
0.84 0.005 0 0 0 0.195867
0.845 0.005 0 0 0 0.156763
0.85 0.005 0 0 0 0.120842
0.855 0.005 0 0 0 0.0880319
0.86 0.005 0 0 0 0.0582533
0.865 0.005 0 0 0 0.0314225
0.87 0.005 0 0 0 0.00745124
0.875 0.005 0 0 0 -0.0137533
0.88 0.005 0 0 0 -0.0322871
0.885 0.005 0 0 0 -0.0482495
0.89 0.005 0 0 0 -0.0617424
0.895 0.005 0 0 0 -0.0728701
0.9 0.005 0 0 0 -0.0817391
0.905 0.005 0 0 0 -0.0884579
0.91 0.005 0 0 0 -0.0931368
0.915 0.005 0 0 0 -0.0958887
0.92 0.005 0 0 0 -0.096829
0.925 0.005 0 0 0 -0.0960763
0.93 0.005 0 0 0 -0.0937536
0.935 0.005 0 0 0 -0.0899893
0.94 0.005 0 0 0 -0.0849192
0.945 0.005 0 0 0 -0.0786888
0.95 0.005 0 0 0 -0.071456
0.955 0.005 0 0 0 -0.0633959
0.96 0.005 0 0 0 -0.0547049
0.965 0.005 0 0 0 -0.045608
0.97 0.005 0 0 0 -0.0363672
0.975 0.005 0 0 0 -0.0272917
0.98 0.005 0 0 0 -0.0187506
0.985 0.005 0 0 0 -0.0111849
0.99 0.005 0 0 0 -0.0051103
0.995 0.005 0 0 0 -0.0010781
1 0.005 0 0 0 0.000504111
0 0.01 0 0 0.000504111 0
0.005 0.01 0 0 0 -326.272
0.01 0.01 -0.180033 0.0775752 -0.000921598 -44.4123
0.015 0.01 -0.184813 -0.0350332 -0.000775752 9.51956
0.02 0.01 -0.156294 -0.0351649 -0.000571266 19.1093
0.025 0.01 -0.127441 -0.0245868 -0.000424103 18.9866
0.03 0.01 -0.104049 -0.0166462 -0.000325399 16.8257
0.035 0.01 -0.0858679 -0.0116363 -0.000257641 14.502
0.04 0.01 -0.0716948 -0.00849753 -0.000209036 12.4445
0.045 0.01 -0.0604772 -0.00645248 -0.000172665 10.7063
0.05 0.01 -0.0514513 -0.00505044 -0.000144511 9.25182
0.055 0.01 -0.0440852 -0.0040415 -0.000122161 8.03261
0.06 0.01 -0.0380067 -0.00328533 -0.000104096 7.00606
0.065 0.01 -0.0329491 -0.00270026 -8.93076e-05 6.13798
0.07 0.01 -0.0287158 -0.00223654 -7.70933e-05 5.40139
0.075 0.01 -0.0251578 -0.00186237 -6.69422e-05 4.77489
0.08 0.01 -0.022159 -0.00155644 -5.84695e-05 4.24125
0.085 0.01 -0.0196271 -0.00130384 -5.13777e-05 3.78643
0.09 0.01 -0.0174877 -0.00109371 -4.54311e-05 3.39882
0.095 0.01 -0.0156797 -0.000917896 -4.04405e-05 3.06873
0.1 0.01 -0.0141529 -0.000770113 -3.6252e-05 2.78802
0.105 0.01 -0.0128652 -0.000645399 -3.27393e-05 2.54979
0.11 0.01 -0.0117816 -0.000539785 -2.9798e-05 2.3482
0.115 0.01 -0.0108727 -0.00045005 -2.73414e-05 2.17826
0.12 0.01 -0.0101136 -0.00037356 -2.52974e-05 2.03572
0.125 0.01 -0.00948338 -0.000308145 -2.36057e-05 1.91697
0.13 0.01 -0.00896446 -0.000252007 -2.22159e-05 1.81889
0.135 0.01 -0.00854186 -0.000203652 -2.10856e-05 1.73886
0.14 0.01 -0.00820293 -0.000161835 -2.01793e-05 1.67459
0.145 0.01 -0.00793695 -0.000125514 -1.94672e-05 1.62417
0.15 0.01 -0.00773484 -9.38177e-05 -1.89241e-05 1.58593
0.155 0.01 -0.00758891 -6.60171e-05 -1.85289e-05 1.55845
0.16 0.01 -0.00749261 -4.14996e-05 -1.82639e-05 1.54054
0.165 0.01 -0.00744039 -1.97515e-05 -1.81139e-05 1.53114
0.17 0.01 -0.00742754 -3.41906e-07 -1.80663e-05 1.52938
0.175 0.01 -0.00745005 1.70909e-05 -1.81104e-05 1.53449
0.18 0.01 -0.00750449 3.285e-05 -1.82371e-05 1.54582
0.185 0.01 -0.00758795 4.71892e-05 -1.84389e-05 1.56281
0.19 0.01 -0.00769793 6.03209e-05 -1.8709e-05 1.58497
0.195 0.01 -0.00783229 7.24223e-05 -1.9042e-05 1.61188
0.2 0.01 -0.00798919 8.3641e-05 -1.94332e-05 1.64318
0.205 0.01 -0.00816702 9.40993e-05 -1.98784e-05 1.67856
0.21 0.01 -0.0083644 0.000103899 -2.03741e-05 1.71773
0.215 0.01 -0.00858011 0.000113122 -2.09173e-05 1.76045
0.22 0.01 -0.00881306 0.000121838 -2.15053e-05 1.8065
0.225 0.01 -0.0090623 0.000130102 -2.21357e-05 1.85568
0.23 0.01 -0.00932696 0.000137957 -2.28063e-05 1.90781
0.235 0.01 -0.00960623 0.000145441 -2.35152e-05 1.96273
0.24 0.01 -0.00989939 0.000152579 -2.42607e-05 2.0203
0.245 0.01 -0.0102057 0.000159394 -2.5041e-05 2.08035
0.25 0.01 -0.0105247 0.0001659 -2.58546e-05 2.14276
0.255 0.01 -0.0108555 0.000172109 -2.67e-05 2.2074
0.26 0.01 -0.0111976 0.000178027 -2.75757e-05 2.27414
0.265 0.01 -0.0115504 0.000183657 -2.84802e-05 2.34285
0.27 0.01 -0.0119134 0.000189001 -2.94122e-05 2.41341
0.275 0.01 -0.0122859 0.000194057 -3.03703e-05 2.4857
0.28 0.01 -0.0126672 0.00019882 -3.13528e-05 2.5596
0.285 0.01 -0.013057 0.000203286 -3.23585e-05 2.63497
0.29 0.01 -0.0134544 0.000207448 -3.33857e-05 2.71169
0.295 0.01 -0.0138589 0.000211299 -3.4433e-05 2.78964
0.3 0.01 -0.0142698 0.000214829 -3.54987e-05 2.86869
0.305 0.01 -0.0146865 0.000218029 -3.65813e-05 2.94869
0.31 0.01 -0.0151083 0.00022089 -3.7679e-05 3.02953
0.315 0.01 -0.0155345 0.000223401 -3.87902e-05 3.11105
0.32 0.01 -0.0159644 0.000225551 -3.9913e-05 3.19312
0.325 0.01 -0.0163973 0.000227332 -4.10457e-05 3.27559
0.33 0.01 -0.0168325 0.000228731 -4.21864e-05 3.35832
0.335 0.01 -0.0172691 0.00022974 -4.33331e-05 3.44116
0.34 0.01 -0.0177064 0.000230347 -4.44838e-05 3.52395
0.345 0.01 -0.0181437 0.000230544 -4.56366e-05 3.60656
0.35 0.01 -0.0185801 0.000230322 -4.67893e-05 3.68881
0.355 0.01 -0.0190148 0.000229672 -4.79399e-05 3.77055
0.36 0.01 -0.0194469 0.000228586 -4.90861e-05 3.85162
0.365 0.01 -0.0198757 0.000227058 -5.02258e-05 3.93186
0.37 0.01 -0.0203003 0.000225081 -5.13568e-05 4.01112
0.375 0.01 -0.0207197 0.000222649 -5.24767e-05 4.08922
0.38 0.01 -0.0211333 0.000219759 -5.35834e-05 4.16601
0.385 0.01 -0.02154 0.000216407 -5.46744e-05 4.24133
0.39 0.01 -0.021939 0.000212591 -5.57476e-05 4.315
0.395 0.01 -0.0223295 0.000208308 -5.68005e-05 4.38688
0.4 0.01 -0.0227106 0.000203559 -5.78308e-05 4.45679
0.405 0.01 -0.0230814 0.000198346 -5.88362e-05 4.52459
0.41 0.01 -0.0234411 0.000192669 -5.98144e-05 4.59012
0.415 0.01 -0.0237888 0.000186533 -6.0763e-05 4.65321
0.42 0.01 -0.0241237 0.000179943 -6.16798e-05 4.71373
0.425 0.01 -0.0244449 0.000172903 -6.25626e-05 4.77152
0.43 0.01 -0.0247517 0.000165422 -6.3409e-05 4.82644
0.435 0.01 -0.0250433 0.000157509 -6.4217e-05 4.87834
0.44 0.01 -0.0253189 0.000149173 -6.49843e-05 4.9271
0.445 0.01 -0.0255777 0.000140425 -6.57089e-05 4.97258
0.45 0.01 -0.025819 0.000131279 -6.63887e-05 5.01465
0.455 0.01 -0.0260422 0.000121748 -6.70219e-05 5.0532
0.46 0.01 -0.0262466 0.000111847 -6.76064e-05 5.08811
0.465 0.01 -0.0264315 0.000101594 -6.81405e-05 5.11927
0.47 0.01 -0.0265963 9.1007e-05 -6.86225e-05 5.14659
0.475 0.01 -0.0267406 8.01043e-05 -6.90508e-05 5.16997
0.48 0.01 -0.0268637 6.8907e-05 -6.94238e-05 5.18932
0.485 0.01 -0.0269652 5.74369e-05 -6.97401e-05 5.20456
0.49 0.01 -0.0270447 4.5717e-05 -6.99984e-05 5.21563
0.495 0.01 -0.0271017 3.37715e-05 -7.01975e-05 5.22247
0.5 0.01 -0.0271359 2.16258e-05 -7.03364e-05 5.22502
0.505 0.01 -0.0271471 9.3062e-06 -7.0414e-05 5.22323
0.51 0.01 -0.0271349 -3.1599e-06 -7.04297e-05 5.21708
0.515 0.01 -0.0270992 -1.57442e-05 -7.03827e-05 5.20654
0.52 0.01 -0.0270398 -2.84175e-05 -7.02725e-05 5.19159
0.525 0.01 -0.0269567 -4.115e-05 -7.00988e-05 5.17223
0.53 0.01 -0.0268498 -5.39108e-05 -6.98613e-05 5.14846
0.535 0.01 -0.0267191 -6.66688e-05 -6.95599e-05 5.1203
0.54 0.01 -0.0265647 -7.93922e-05 -6.91948e-05 5.08777
0.545 0.01 -0.0263868 -9.20489e-05 -6.87663e-05 5.05091
0.55 0.01 -0.0261856 -0.000104606 -6.82746e-05 5.00976
0.555 0.01 -0.0259612 -0.000117032 -6.77205e-05 4.96439
0.56 0.01 -0.0257141 -0.000129292 -6.71046e-05 4.91485
0.565 0.01 -0.0254446 -0.000141356 -6.64279e-05 4.86122
0.57 0.01 -0.0251531 -0.000153189 -6.56913e-05 4.80359
0.575 0.01 -0.0248401 -0.000164761 -6.48962e-05 4.74205
0.58 0.01 -0.0245061 -0.000176038 -6.4044e-05 4.67672
0.585 0.01 -0.0241518 -0.000186991 -6.31361e-05 4.6077
0.59 0.01 -0.0237779 -0.000197589 -6.21744e-05 4.53512
0.595 0.01 -0.0233849 -0.000207802 -6.11605e-05 4.45912
0.6 0.01 -0.0229737 -0.000217601 -6.00966e-05 4.37983
0.605 0.01 -0.022545 -0.00022696 -5.89848e-05 4.29742
0.61 0.01 -0.0220998 -0.000235852 -5.78273e-05 4.21203
0.615 0.01 -0.0216389 -0.000244253 -5.66265e-05 4.12383
0.62 0.01 -0.0211633 -0.00025214 -5.5385e-05 4.033
0.625 0.01 -0.0206739 -0.000259491 -5.41054e-05 3.93971
0.63 0.01 -0.0201717 -0.000266286 -5.27904e-05 3.84415
0.635 0.01 -0.0196578 -0.000272509 -5.14428e-05 3.74651
0.64 0.01 -0.0191332 -0.000278143 -5.00655e-05 3.64698
0.645 0.01 -0.0185991 -0.000283175 -4.86616e-05 3.54577
0.65 0.01 -0.0180565 -0.000287593 -4.7234e-05 3.44307
0.655 0.01 -0.0175066 -0.000291389 -4.57859e-05 3.33909
0.66 0.01 -0.0169506 -0.000294555 -4.43204e-05 3.23405
0.665 0.01 -0.0163895 -0.000297088 -4.28406e-05 3.12813
0.67 0.01 -0.0158246 -0.000298985 -4.13497e-05 3.02156
0.675 0.01 -0.015257 -0.000300247 -3.98509e-05 2.91455
0.68 0.01 -0.0146879 -0.000300877 -3.83474e-05 2.8073
0.685 0.01 -0.0141183 -0.00030088 -3.68423e-05 2.70002
0.69 0.01 -0.0135496 -0.000300264 -3.53388e-05 2.59291
0.695 0.01 -0.0129826 -0.000299039 -3.38398e-05 2.48618
0.7 0.01 -0.0124187 -0.000297216 -3.23486e-05 2.38001
0.705 0.01 -0.0118588 -0.000294812 -3.08678e-05 2.27462
0.71 0.01 -0.0113039 -0.000291842 -2.94006e-05 2.17018
0.715 0.01 -0.0107552 -0.000288325 -2.79496e-05 2.06688
0.72 0.01 -0.0102136 -0.000284282 -2.65175e-05 1.9649
0.725 0.01 -0.00967996 -0.000279735 -2.51069e-05 1.8644
0.73 0.01 -0.00915527 -0.000274709 -2.37202e-05 1.76555
0.735 0.01 -0.00864036 -0.000269229 -2.23599e-05 1.6685
0.74 0.01 -0.00813605 -0.000263322 -2.1028e-05 1.5734
0.745 0.01 -0.00764308 -0.000257016 -1.97267e-05 1.4804
0.75 0.01 -0.00716218 -0.00025034 -1.84579e-05 1.38961
0.755 0.01 -0.00669399 -0.000243325 -1.72234e-05 1.30116
0.76 0.01 -0.00623912 -0.000236001 -1.60248e-05 1.21516
0.765 0.01 -0.00579811 -0.000228399 -1.48635e-05 1.13172
0.77 0.01 -0.00537145 -0.000220552 -1.37408e-05 1.05091
0.775 0.01 -0.00495958 -0.00021249 -1.2658e-05 0.972828
0.78 0.01 -0.00456287 -0.000204245 -1.16159e-05 0.89754
0.785 0.01 -0.00418164 -0.00019585 -1.06156e-05 0.825108
0.79 0.01 -0.00381616 -0.000187334 -9.65748e-06 0.755581
0.795 0.01 -0.00346663 -0.000178728 -8.74224e-06 0.689002
0.8 0.01 -0.0031332 -0.000170062 -7.87021e-06 0.6254
0.805 0.01 -0.00281597 -0.000161365 -7.04162e-06 0.564799
0.81 0.01 -0.00251499 -0.000152666 -6.25656e-06 0.50721
0.815 0.01 -0.00223025 -0.00014399 -5.51497e-06 0.452636
0.82 0.01 -0.00196171 -0.000135364 -4.81666e-06 0.401071
0.825 0.01 -0.00170926 -0.000126811 -4.16132e-06 0.352502
0.83 0.01 -0.00147277 -0.000118356 -3.54853e-06 0.306906
0.835 0.01 -0.00125205 -0.000110019 -2.97775e-06 0.264254
0.84 0.01 -0.00104687 -0.000101821 -2.44832e-06 0.224508
0.845 0.01 -0.000856985 -9.37795e-05 -1.95952e-06 0.187624
0.85 0.01 -0.000682094 -8.59121e-05 -1.51051e-06 0.153552
0.855 0.01 -0.000521875 -7.82341e-05 -1.10038e-06 0.122235
0.86 0.01 -0.000375977 -7.07593e-05 -7.28141e-07 0.093613
0.865 0.01 -0.000244022 -6.35e-05 -3.92756e-07 0.0676177
0.87 0.01 -0.000125611 -5.64671e-05 -9.31138e-08 0.0441782
0.875 0.01 -2.0322e-05 -4.96702e-05 1.71943e-07 0.0232189
0.88 0.01 7.22848e-05 -4.31176e-05 4.03616e-07 0.0046604
0.885 0.01 0.000152665 -3.68164e-05 6.03146e-07 -0.0115803
0.89 0.01 0.000221289 -3.07731e-05 7.71807e-07 -0.0255893
0.895 0.01 0.000278642 -2.49932e-05 9.10903e-07 -0.0374558
0.9 0.01 0.000325219 -1.9482e-05 1.02176e-06 -0.047272
0.905 0.01 0.000361529 -1.42445e-05 1.10575e-06 -0.0551327
0.91 0.01 0.000388094 -9.28608e-06 1.16423e-06 -0.061136
0.915 0.01 0.000405447 -4.61287e-06 1.19863e-06 -0.065383
0.92 0.01 0.000414137 -2.32268e-07 1.21038e-06 -0.0679783
0.925 0.01 0.000414733 3.84633e-06 1.20097e-06 -0.069031
0.93 0.01 0.000407825 7.6107e-06 1.17194e-06 -0.0686548
0.935 0.01 0.000394032 1.10448e-05 1.12488e-06 -0.0669697
0.94 0.01 0.000374008 1.41274e-05 1.06151e-06 -0.0641031
0.945 0.01 0.000348455 1.68305e-05 9.83622e-07 -0.0601917
0.95 0.01 0.000318134 1.91174e-05 8.93211e-07 -0.0553833
0.955 0.01 0.000283879 2.09401e-05 7.92458e-07 -0.04984
0.96 0.01 0.000246621 2.22357e-05 6.83818e-07 -0.0437405
0.965 0.01 0.00020741 2.29228e-05 5.70106e-07 -0.0372837
0.97 0.01 0.000167441 2.2896e-05 4.54595e-07 -0.0306917
0.975 0.01 0.00012809 2.20213e-05 3.41149e-07 -0.0242113
0.98 0.01 9.09371e-05 2.01338e-05 2.34384e-07 -0.018112
0.985 0.01 5.77818e-05 1.70505e-05 1.39813e-07 -0.0126733
0.99 0.01 3.05952e-05 1.26336e-05 6.3879e-08 -0.00814906
0.995 0.01 1.13275e-05 7.01804e-06 1.34761e-08 -0.00467796
1 0.01 1.34445e-06 1.34761e-06 -6.30154e-09 -0.00208509
0 0.015 0 0 -0.00107556 0
0.005 0.015 0 0 0 -255.973
0.01 0.015 -0.152828 0.184813 -0.00180033 -79.2692
0.015 0.015 -0.206165 -0.023739 -0.00184813 -16.6437
0.02 0.015 -0.204474 -0.057372 -0.00156294 2.32156
0.025 0.015 -0.184458 -0.052245 -0.00127441 7.94307
0.03 0.015 -0.160992 -0.0415732 -0.00104049 9.27345
0.035 0.015 -0.139064 -0.0323545 -0.000858679 9.14595
0.04 0.015 -0.119952 -0.0253907 -0.000716948 8.52996
0.045 0.015 -0.103679 -0.0202435 -0.000604772 7.77953
0.05 0.015 -0.0899108 -0.016392 -0.000514513 7.02809
0.055 0.015 -0.0782634 -0.0134446 -0.000440852 6.32511
0.06 0.015 -0.0683902 -0.0111361 -0.000380067 5.68682
0.065 0.015 -0.0600021 -0.00929083 -0.000329491 5.11595
0.07 0.015 -0.0528622 -0.00779125 -0.000287158 4.60979
0.075 0.015 -0.0467769 -0.00655685 -0.000251578 4.16358
0.08 0.015 -0.0415867 -0.0055307 -0.000221589 3.77191
0.085 0.015 -0.0371596 -0.00467127 -0.000196271 3.4294
0.09 0.015 -0.0333849 -0.00394732 -0.000174876 3.13092
0.095 0.015 -0.0301695 -0.00333475 -0.000156797 2.87173
0.1 0.015 -0.0274349 -0.00281449 -0.000141529 2.64752
0.105 0.015 -0.0251143 -0.00237124 -0.000128652 2.45437
0.11 0.015 -0.0231509 -0.00199252 -0.000117816 2.2888
0.115 0.015 -0.0214963 -0.00166804 -0.000108726 2.14767
0.12 0.015 -0.0201091 -0.00138926 -0.000101135 2.0282
0.125 0.015 -0.0189541 -0.00114907 -9.48335e-05 1.92794
0.13 0.015 -0.0180012 -0.000941492 -8.96443e-05 1.84472
0.135 0.015 -0.0172244 -0.000761506 -8.54183e-05 1.77663
0.14 0.015 -0.0166019 -0.000604884 -8.2029e-05 1.72198
0.145 0.015 -0.0161148 -0.000468058 -7.93693e-05 1.67931
0.15 0.015 -0.015747 -0.000348017 -7.73482e-05 1.64732
0.155 0.015 -0.0154846 -0.000242213 -7.58889e-05 1.62491
0.16 0.015 -0.015316 -0.000148496 -7.49259e-05 1.61107
0.165 0.015 -0.015231 -6.50444e-05 -7.44037e-05 1.60496
0.17 0.015 -0.015221 9.67722e-06 -7.42752e-05 1.60583
0.175 0.015 -0.0152786 7.69673e-05 -7.45003e-05 1.61301
0.18 0.015 -0.0153974 0.000137921 -7.50447e-05 1.62595
0.185 0.015 -0.0155719 0.00019346 -7.58793e-05 1.64414
0.19 0.015 -0.0157975 0.000244361 -7.69791e-05 1.66714
0.195 0.015 -0.01607 0.000291275 -7.83228e-05 1.69457
0.2 0.015 -0.016386 0.000334746 -7.98917e-05 1.72609
0.205 0.015 -0.0167422 0.000375228 -8.16701e-05 1.76138
0.21 0.015 -0.0171361 0.0004131 -8.36439e-05 1.8002
0.215 0.015 -0.0175652 0.000448674 -8.5801e-05 1.84228
0.22 0.015 -0.0180273 0.000482205 -8.81305e-05 1.88742
0.225 0.015 -0.0185206 0.000513904 -9.06229e-05 1.93541
0.23 0.015 -0.0190432 0.000543938 -9.32695e-05 1.98608
0.235 0.015 -0.0195936 0.000572444 -9.60622e-05 2.03924
0.24 0.015 -0.0201703 0.000599527 -9.89938e-05 2.09474
0.245 0.015 -0.0207718 0.000625269 -0.000102057 2.15244
0.25 0.015 -0.0213969 0.00064973 -0.000105246 2.21218
0.255 0.015 -0.0220442 0.000672954 -0.000108555 2.27382
0.26 0.015 -0.0227124 0.000694968 -0.000111976 2.33723
0.265 0.015 -0.0234004 0.000715789 -0.000115504 2.40228
0.27 0.015 -0.0241069 0.000735422 -0.000119134 2.46883
0.275 0.015 -0.0248306 0.000753863 -0.000122859 2.53676
0.28 0.015 -0.0255704 0.0007711 -0.000126672 2.60593
0.285 0.015 -0.026325 0.000787118 -0.00013057 2.67621
0.29 0.015 -0.0270932 0.000801893 -0.000134544 2.74747
0.295 0.015 -0.0278737 0.000815399 -0.000138589 2.81959
0.3 0.015 -0.0286651 0.000827608 -0.000142698 2.89242
0.305 0.015 -0.0294662 0.000838488 -0.000146865 2.96584
0.31 0.015 -0.0302756 0.000848006 -0.000151083 3.0397
0.315 0.015 -0.0310919 0.000856128 -0.000155345 3.11387
0.32 0.015 -0.0319138 0.000862818 -0.000159644 3.18822
0.325 0.015 -0.0327398 0.000868043 -0.000163973 3.26259
0.33 0.015 -0.0335684 0.000871769 -0.000168325 3.33686
0.335 0.015 -0.0343981 0.000873962 -0.000172691 3.41087
0.34 0.015 -0.0352275 0.00087459 -0.000177065 3.48449
0.345 0.015 -0.036055 0.000873625 -0.000181437 3.55757
0.35 0.015 -0.036879 0.000871037 -0.000185801 3.62997
0.355 0.015 -0.037698 0.000866802 -0.000190148 3.70154
0.36 0.015 -0.0385104 0.000860896 -0.00019447 3.77214
0.365 0.015 -0.0393146 0.0008533 -0.000198757 3.84162
0.37 0.015 -0.0401089 0.000843997 -0.000203003 3.90985
0.375 0.015 -0.0408918 0.000832974 -0.000207198 3.97667
0.38 0.015 -0.0416616 0.00082022 -0.000211333 4.04195
0.385 0.015 -0.0424167 0.000805731 -0.0002154 4.10554
0.39 0.015 -0.0431555 0.000789504 -0.000219391 4.16731
0.395 0.015 -0.0438763 0.000771541 -0.000223296 4.22713
0.4 0.015 -0.0445776 0.000751849 -0.000227107 4.28486
0.405 0.015 -0.0452578 0.000730438 -0.000230815 4.34036
0.41 0.015 -0.0459152 0.000707325 -0.000234412 4.39352
0.415 0.015 -0.0465485 0.000682528 -0.000237889 4.4442
0.42 0.015 -0.0471559 0.000656072 -0.000241237 4.4923
0.425 0.015 -0.0477362 0.000627986 -0.00024445 4.53769
0.43 0.015 -0.0482877 0.000598305 -0.000247518 4.58026
0.435 0.015 -0.0488091 0.000567067 -0.000250434 4.6199
0.44 0.015 -0.0492991 0.000534314 -0.000253189 4.65652
0.445 0.015 -0.0497563 0.000500096 -0.000255777 4.69002
0.45 0.015 -0.0501794 0.000464464 -0.000258191 4.7203
0.455 0.015 -0.0505673 0.000427477 -0.000260423 4.74729
0.46 0.015 -0.0509188 0.000389196 -0.000262467 4.7709
0.465 0.015 -0.0512328 0.000349689 -0.000264316 4.79106
0.47 0.015 -0.0515083 0.000309025 -0.000265964 4.80771
0.475 0.015 -0.0517443 0.000267281 -0.000267407 4.82079
0.48 0.015 -0.0519401 0.000224537 -0.000268638 4.83024
0.485 0.015 -0.0520947 0.000180875 -0.000269653 4.83602
0.49 0.015 -0.0522076 0.000136385 -0.000270448 4.8381
0.495 0.015 -0.052278 9.11569e-05 -0.000271018 4.83643
0.5 0.015 -0.0523054 4.52867e-05 -0.00027136 4.83101
0.505 0.015 -0.0522894 -1.1272e-06 -0.000271472 4.82181
0.51 0.015 -0.0522297 -4.79831e-05 -0.00027135 4.80883
0.515 0.015 -0.0521259 -9.51763e-05 -0.000270993 4.79207
0.52 0.015 -0.051978 -0.0001426 -0.000270399 4.77154
0.525 0.015 -0.0517858 -0.000190143 -0.000269568 4.74724
0.53 0.015 -0.0515493 -0.000237695 -0.000268499 4.71922
0.535 0.015 -0.0512689 -0.000285143 -0.000267192 4.68749
0.54 0.015 -0.0509445 -0.00033237 -0.000265648 4.6521
0.545 0.015 -0.0505767 -0.000379262 -0.000263869 4.6131
0.55 0.015 -0.0501659 -0.000425701 -0.000261857 4.57055
0.555 0.015 -0.0497126 -0.000471572 -0.000259613 4.52449
0.56 0.015 -0.0492175 -0.000516757 -0.000257142 4.47502
0.565 0.015 -0.0486813 -0.00056114 -0.000254447 4.4222
0.57 0.015 -0.0481049 -0.000604606 -0.000251532 4.36611
0.575 0.015 -0.0474893 -0.000647041 -0.000248402 4.30687
0.58 0.015 -0.0468355 -0.000688335 -0.000245062 4.24455
0.585 0.015 -0.0461446 -0.000728376 -0.000241519 4.17927
0.59 0.015 -0.045418 -0.00076706 -0.00023778 4.11115
0.595 0.015 -0.0446569 -0.000804284 -0.00023385 4.04029
0.6 0.015 -0.0438628 -0.000839946 -0.000229738 3.96683
0.605 0.015 -0.0430372 -0.000873954 -0.000225452 3.89089
0.61 0.015 -0.0421817 -0.000906216 -0.000220999 3.81262
0.615 0.015 -0.0412979 -0.000936647 -0.00021639 3.73214
0.62 0.015 -0.0403876 -0.000965169 -0.000211634 3.64961
0.625 0.015 -0.0394526 -0.000991707 -0.00020674 3.56518
0.63 0.015 -0.0384947 -0.00101619 -0.000201718 3.47899
0.635 0.015 -0.0375159 -0.00103857 -0.000196579 3.39121
0.64 0.015 -0.0365181 -0.00105878 -0.000191333 3.30199
0.645 0.015 -0.0355033 -0.00107678 -0.000185992 3.2115
0.65 0.015 -0.0344735 -0.00109254 -0.000180566 3.11989
0.655 0.015 -0.0334308 -0.00110602 -0.000175067 3.02734
0.66 0.015 -0.0323774 -0.00111719 -0.000169507 2.93401
0.665 0.015 -0.0313152 -0.00112606 -0.000163896 2.84006
0.67 0.015 -0.0302464 -0.0011326 -0.000158247 2.74567
0.675 0.015 -0.0291731 -0.00113683 -0.000152571 2.651
0.68 0.015 -0.0280974 -0.00113875 -0.000146879 2.55622
0.685 0.015 -0.0270214 -0.00113839 -0.000141184 2.46148
0.69 0.015 -0.0259471 -0.00113578 -0.000135496 2.36696
0.695 0.015 -0.0248765 -0.00113094 -0.000129827 2.27282
0.7 0.015 -0.0238118 -0.00112393 -0.000124187 2.1792
0.705 0.015 -0.0227547 -0.0011148 -0.000118588 2.08627
0.71 0.015 -0.0217072 -0.00110361 -0.00011304 1.99418
0.715 0.015 -0.0206712 -0.00109042 -0.000107553 1.90307
0.72 0.015 -0.0196485 -0.00107531 -0.000102136 1.81309
0.725 0.015 -0.0186406 -0.00105835 -9.68e-05 1.72436
0.73 0.015 -0.0176494 -0.00103964 -9.15531e-05 1.63704
0.735 0.015 -0.0166763 -0.00101926 -8.6404e-05 1.55123
0.74 0.015 -0.0157229 -0.000997319 -8.13608e-05 1.46706
0.745 0.015 -0.0147904 -0.000973905 -7.64312e-05 1.38464
0.75 0.015 -0.0138803 -0.000949127 -7.16221e-05 1.30408
0.755 0.015 -0.0129938 -0.000923091 -6.69402e-05 1.22549
0.76 0.015 -0.0121318 -0.000895908 -6.23914e-05 1.14894
0.765 0.015 -0.0112956 -0.00086769 -5.79813e-05 1.07454
0.77 0.015 -0.0104859 -0.000838549 -5.37147e-05 1.00235
0.775 0.015 -0.00970358 -0.000808599 -4.9596e-05 0.932455
0.78 0.015 -0.00894938 -0.000777953 -4.56289e-05 0.864908
0.785 0.015 -0.00822388 -0.000746726 -4.18166e-05 0.799767
0.79 0.015 -0.0075276 -0.00071503 -3.81617e-05 0.737081
0.795 0.015 -0.00686094 -0.000682974 -3.46663e-05 0.676888
0.8 0.015 -0.00622421 -0.000650667 -3.1332e-05 0.619221
0.805 0.015 -0.00561763 -0.000618215 -2.81597e-05 0.564105
0.81 0.015 -0.00504131 -0.000585719 -2.51499e-05 0.511557
0.815 0.015 -0.00449528 -0.000553279 -2.23025e-05 0.461586
0.82 0.015 -0.00397948 -0.000520988 -1.96171e-05 0.414195
0.825 0.015 -0.00349375 -0.000488938 -1.70926e-05 0.369381
0.83 0.015 -0.00303788 -0.000457214 -1.47277e-05 0.32713
0.835 0.015 -0.00261155 -0.000425895 -1.25204e-05 0.287427