Title=" Lid Driven Flow"
VARIABLES="X","Y","U","V","psi","xi"
ZONE T= "BOX", I= 201, J=201, F=POINT
0 0 0 0 0.00329207 0
0.005 0 0 0 0 0
0.01 0 0 0 0 0
0.015 0 0 0 0 161.891
0.02 0 0 0 0 176.122
0.025 0 0 0 0 155.6
0.03 0 0 0 0 133.207
0.035 0 0 0 0 115.684
0.04 0 0 0 0 102.828
0.045 0 0 0 0 93.2935
0.05 0 0 0 0 85.9708
0.055 0 0 0 0 80.1269
0.06 0 0 0 0 75.3033
0.065 0 0 0 0 71.211
0.07 0 0 0 0 67.6624
0.075 0 0 0 0 64.5308
0.08 0 0 0 0 61.728
0.085 0 0 0 0 59.1904
0.09 0 0 0 0 56.8713
0.095 0 0 0 0 54.7353
0.1 0 0 0 0 52.7556
0.105 0 0 0 0 50.911
0.11 0 0 0 0 49.1851
0.115 0 0 0 0 47.5642
0.12 0 0 0 0 46.0376
0.125 0 0 0 0 44.5962
0.13 0 0 0 0 43.2324
0.135 0 0 0 0 41.9396
0.14 0 0 0 0 40.7123
0.145 0 0 0 0 39.5455
0.15 0 0 0 0 38.4349
0.155 0 0 0 0 37.3767
0.16 0 0 0 0 36.3672
0.165 0 0 0 0 35.4032
0.17 0 0 0 0 34.4819
0.175 0 0 0 0 33.6005
0.18 0 0 0 0 32.7565
0.185 0 0 0 0 31.9474
0.19 0 0 0 0 31.1711
0.195 0 0 0 0 30.4254
0.2 0 0 0 0 29.7086
0.205 0 0 0 0 29.0186
0.21 0 0 0 0 28.3537
0.215 0 0 0 0 27.7123
0.22 0 0 0 0 27.0929
0.225 0 0 0 0 26.494
0.23 0 0 0 0 25.9142
0.235 0 0 0 0 25.3521
0.24 0 0 0 0 24.8066
0.245 0 0 0 0 24.2764
0.25 0 0 0 0 23.7606
0.255 0 0 0 0 23.2579
0.26 0 0 0 0 22.7675
0.265 0 0 0 0 22.2885
0.27 0 0 0 0 21.8199
0.275 0 0 0 0 21.361
0.28 0 0 0 0 20.911
0.285 0 0 0 0 20.4691
0.29 0 0 0 0 20.0349
0.295 0 0 0 0 19.6075
0.3 0 0 0 0 19.1865
0.305 0 0 0 0 18.7714
0.31 0 0 0 0 18.3616
0.315 0 0 0 0 17.9567
0.32 0 0 0 0 17.5564
0.325 0 0 0 0 17.1602
0.33 0 0 0 0 16.7678
0.335 0 0 0 0 16.3789
0.34 0 0 0 0 15.9932
0.345 0 0 0 0 15.6106
0.35 0 0 0 0 15.2308
0.355 0 0 0 0 14.8537
0.36 0 0 0 0 14.4791
0.365 0 0 0 0 14.1069
0.37 0 0 0 0 13.7371
0.375 0 0 0 0 13.3695
0.38 0 0 0 0 13.0041
0.385 0 0 0 0 12.641
0.39 0 0 0 0 12.2802
0.395 0 0 0 0 11.9216
0.4 0 0 0 0 11.5653
0.405 0 0 0 0 11.2115
0.41 0 0 0 0 10.8602
0.415 0 0 0 0 10.5116
0.42 0 0 0 0 10.1656
0.425 0 0 0 0 9.82261
0.43 0 0 0 0 9.48264
0.435 0 0 0 0 9.1459
0.44 0 0 0 0 8.81255
0.445 0 0 0 0 8.48281
0.45 0 0 0 0 8.15684
0.455 0 0 0 0 7.83487
0.46 0 0 0 0 7.5171
0.465 0 0 0 0 7.20373
0.47 0 0 0 0 6.89498
0.475 0 0 0 0 6.59107
0.48 0 0 0 0 6.2922
0.485 0 0 0 0 5.99858
0.49 0 0 0 0 5.71042
0.495 0 0 0 0 5.42792
0.5 0 0 0 0 5.15126
0.505 0 0 0 0 4.88064
0.51 0 0 0 0 4.61622
0.515 0 0 0 0 4.35817
0.52 0 0 0 0 4.10664
0.525 0 0 0 0 3.86177
0.53 0 0 0 0 3.62368
0.535 0 0 0 0 3.39249
0.54 0 0 0 0 3.16828
0.545 0 0 0 0 2.95115
0.55 0 0 0 0 2.74114
0.555 0 0 0 0 2.53831
0.56 0 0 0 0 2.34269
0.565 0 0 0 0 2.15429
0.57 0 0 0 0 1.9731
0.575 0 0 0 0 1.79912
0.58 0 0 0 0 1.6323
0.585 0 0 0 0 1.47258
0.59 0 0 0 0 1.31991
0.595 0 0 0 0 1.1742
0.6 0 0 0 0 1.03536
0.605 0 0 0 0 0.90328
0.61 0 0 0 0 0.777835
0.615 0 0 0 0 0.658896
0.62 0 0 0 0 0.546321
0.625 0 0 0 0 0.439958
0.63 0 0 0 0 0.339647
0.635 0 0 0 0 0.245221
0.64 0 0 0 0 0.156505
0.645 0 0 0 0 0.0733209
0.65 0 0 0 0 -0.00451592
0.655 0 0 0 0 -0.0771929
0.66 0 0 0 0 -0.1449
0.665 0 0 0 0 -0.207831
0.67 0 0 0 0 -0.266178
0.675 0 0 0 0 -0.320138
0.68 0 0 0 0 -0.369903
0.685 0 0 0 0 -0.415671
0.69 0 0 0 0 -0.457634
0.695 0 0 0 0 -0.495988
0.7 0 0 0 0 -0.530923
0.705 0 0 0 0 -0.562632
0.71 0 0 0 0 -0.591304
0.715 0 0 0 0 -0.617127
0.72 0 0 0 0 -0.640286
0.725 0 0 0 0 -0.660963
0.73 0 0 0 0 -0.679337
0.735 0 0 0 0 -0.695582
0.74 0 0 0 0 -0.709869
0.745 0 0 0 0 -0.722359
0.75 0 0 0 0 -0.73321
0.755 0 0 0 0 -0.742568
0.76 0 0 0 0 -0.750571
0.765 0 0 0 0 -0.757346
0.77 0 0 0 0 -0.763006
0.775 0 0 0 0 -0.767653
0.78 0 0 0 0 -0.771371
0.785 0 0 0 0 -0.77423
0.79 0 0 0 0 -0.776283
0.795 0 0 0 0 -0.777567
0.8 0 0 0 0 -0.778099
0.805 0 0 0 0 -0.777881
0.81 0 0 0 0 -0.776895
0.815 0 0 0 0 -0.77511
0.82 0 0 0 0 -0.772478
0.825 0 0 0 0 -0.768936
0.83 0 0 0 0 -0.76441
0.835 0 0 0 0 -0.758815
0.84 0 0 0 0 -0.752059
0.845 0 0 0 0 -0.744042
0.85 0 0 0 0 -0.734664
0.855 0 0 0 0 -0.723824
0.86 0 0 0 0 -0.711423
0.865 0 0 0 0 -0.697371
0.87 0 0 0 0 -0.681585
0.875 0 0 0 0 -0.663997
0.88 0 0 0 0 -0.644553
0.885 0 0 0 0 -0.623222
0.89 0 0 0 0 -0.599991
0.895 0 0 0 0 -0.574876
0.9 0 0 0 0 -0.547918
0.905 0 0 0 0 -0.519191
0.91 0 0 0 0 -0.488798
0.915 0 0 0 0 -0.45688
0.92 0 0 0 0 -0.423611
0.925 0 0 0 0 -0.389204
0.93 0 0 0 0 -0.353907
0.935 0 0 0 0 -0.31801
0.94 0 0 0 0 -0.281838
0.945 0 0 0 0 -0.245758
0.95 0 0 0 0 -0.210174
0.955 0 0 0 0 -0.175528
0.96 0 0 0 0 -0.142303
0.965 0 0 0 0 -0.111017
0.97 0 0 0 0 -0.0822269
0.975 0 0 0 0 -0.056522
0.98 0 0 0 0 -0.0345171
0.985 0 0 0 0 -0.016833
0.99 0 0 0 0 -0.00404934
0.995 0 0 0 0 0.00340656
1 0 0 0 0 0.00552086
0 0.005 0 0 0 0
0.005 0.005 0 0 0 0
0.01 0.005 0 0 0 73.7282
0.015 0.005 0 0 0 62.0707
0.02 0.005 0 0 0 45.7261
0.025 0.005 0 0 0 33.9616
0.03 0.005 0 0 0 26.0638
0.035 0.005 0 0 0 20.6319
0.04 0.005 0 0 0 16.7249
0.045 0.005 0 0 0 13.7922
0.05 0.005 0 0 0 11.515
0.055 0.005 0 0 0 9.70234
0.06 0.005 0 0 0 8.23405
0.065 0.005 0 0 0 7.03034
0.07 0.005 0 0 0 6.03548
0.075 0.005 0 0 0 5.20875
0.08 0.005 0 0 0 4.51933
0.085 0.005 0 0 0 3.94322
0.09 0.005 0 0 0 3.4613
0.095 0.005 0 0 0 3.05811
0.1 0.005 0 0 0 2.72102
0.105 0.005 0 0 0 2.43961
0.11 0.005 0 0 0 2.20523
0.115 0.005 0 0 0 2.01068
0.12 0.005 0 0 0 1.84997
0.125 0.005 0 0 0 1.71807
0.13 0.005 0 0 0 1.61078
0.135 0.005 0 0 0 1.52457
0.14 0.005 0 0 0 1.45651
0.145 0.005 0 0 0 1.40411
0.15 0.005 0 0 0 1.36531
0.155 0.005 0 0 0 1.33837
0.16 0.005 0 0 0 1.32182
0.165 0.005 0 0 0 1.31447
0.17 0.005 0 0 0 1.31528
0.175 0.005 0 0 0 1.32339
0.18 0.005 0 0 0 1.3381
0.185 0.005 0 0 0 1.3588
0.19 0.005 0 0 0 1.38498
0.195 0.005 0 0 0 1.41622
0.2 0.005 0 0 0 1.45215
0.205 0.005 0 0 0 1.49248
0.21 0.005 0 0 0 1.53695
0.215 0.005 0 0 0 1.58532
0.22 0.005 0 0 0 1.63741
0.225 0.005 0 0 0 1.69304
0.23 0.005 0 0 0 1.75207
0.235 0.005 0 0 0 1.81436
0.24 0.005 0 0 0 1.87978
0.245 0.005 0 0 0 1.94821
0.25 0.005 0 0 0 2.01955
0.255 0.005 0 0 0 2.09369
0.26 0.005 0 0 0 2.17053
0.265 0.005 0 0 0 2.24996
0.27 0.005 0 0 0 2.33187
0.275 0.005 0 0 0 2.41617
0.28 0.005 0 0 0 2.50274
0.285 0.005 0 0 0 2.59148
0.29 0.005 0 0 0 2.68228
0.295 0.005 0 0 0 2.775
0.3 0.005 0 0 0 2.86954
0.305 0.005 0 0 0 2.96576
0.31 0.005 0 0 0 3.06354
0.315 0.005 0 0 0 3.16273
0.32 0.005 0 0 0 3.2632
0.325 0.005 0 0 0 3.36479
0.33 0.005 0 0 0 3.46736
0.335 0.005 0 0 0 3.57075
0.34 0.005 0 0 0 3.67478
0.345 0.005 0 0 0 3.77931
0.35 0.005 0 0 0 3.88414
0.355 0.005 0 0 0 3.9891
0.36 0.005 0 0 0 4.09402
0.365 0.005 0 0 0 4.1987
0.37 0.005 0 0 0 4.30295
0.375 0.005 0 0 0 4.40659
0.38 0.005 0 0 0 4.50941
0.385 0.005 0 0 0 4.6112
0.39 0.005 0 0 0 4.71178
0.395 0.005 0 0 0 4.81094
0.4 0.005 0 0 0 4.90846
0.405 0.005 0 0 0 5.00414
0.41 0.005 0 0 0 5.09778
0.415 0.005 0 0 0 5.18917
0.42 0.005 0 0 0 5.27809
0.425 0.005 0 0 0 5.36435
0.43 0.005 0 0 0 5.44773
0.435 0.005 0 0 0 5.52803
0.44 0.005 0 0 0 5.60506
0.445 0.005 0 0 0 5.67861
0.45 0.005 0 0 0 5.74849
0.455 0.005 0 0 0 5.81451
0.46 0.005 0 0 0 5.87649
0.465 0.005 0 0 0 5.93424
0.47 0.005 0 0 0 5.9876
0.475 0.005 0 0 0 6.0364
0.48 0.005 0 0 0 6.08047
0.485 0.005 0 0 0 6.11967
0.49 0.005 0 0 0 6.15385
0.495 0.005 0 0 0 6.18287
0.5 0.005 0 0 0 6.20662
0.505 0.005 0 0 0 6.22498
0.51 0.005 0 0 0 6.23785
0.515 0.005 0 0 0 6.24512
0.52 0.005 0 0 0 6.24673
0.525 0.005 0 0 0 6.24259
0.53 0.005 0 0 0 6.23267
0.535 0.005 0 0 0 6.2169
0.54 0.005 0 0 0 6.19527
0.545 0.005 0 0 0 6.16775
0.55 0.005 0 0 0 6.13435
0.555 0.005 0 0 0 6.09508
0.56 0.005 0 0 0 6.04997
0.565 0.005 0 0 0 5.99906
0.57 0.005 0 0 0 5.94241
0.575 0.005 0 0 0 5.88009
0.58 0.005 0 0 0 5.8122
0.585 0.005 0 0 0 5.73884
0.59 0.005 0 0 0 5.66012
0.595 0.005 0 0 0 5.57619
0.6 0.005 0 0 0 5.48719
0.605 0.005 0 0 0 5.3933
0.61 0.005 0 0 0 5.29469
0.615 0.005 0 0 0 5.19156
0.62 0.005 0 0 0 5.08411
0.625 0.005 0 0 0 4.97257
0.63 0.005 0 0 0 4.85717
0.635 0.005 0 0 0 4.73815
0.64 0.005 0 0 0 4.61579
0.645 0.005 0 0 0 4.49033
0.65 0.005 0 0 0 4.36206
0.655 0.005 0 0 0 4.23127
0.66 0.005 0 0 0 4.09825
0.665 0.005 0 0 0 3.96329
0.67 0.005 0 0 0 3.8267
0.675 0.005 0 0 0 3.68879
0.68 0.005 0 0 0 3.54987
0.685 0.005 0 0 0 3.41026
0.69 0.005 0 0 0 3.27026
0.695 0.005 0 0 0 3.13019
0.7 0.005 0 0 0 2.99037
0.705 0.005 0 0 0 2.85109
0.71 0.005 0 0 0 2.71265
0.715 0.005 0 0 0 2.57537
0.72 0.005 0 0 0 2.43952
0.725 0.005 0 0 0 2.30538
0.73 0.005 0 0 0 2.17323
0.735 0.005 0 0 0 2.04333
0.74 0.005 0 0 0 1.91592
0.745 0.005 0 0 0 1.79124
0.75 0.005 0 0 0 1.66951
0.755 0.005 0 0 0 1.55095
0.76 0.005 0 0 0 1.43574
0.765 0.005 0 0 0 1.32406
0.77 0.005 0 0 0 1.21607
0.775 0.005 0 0 0 1.11193
0.78 0.005 0 0 0 1.01174
0.785 0.005 0 0 0 0.915635
0.79 0.005 0 0 0 0.823695
0.795 0.005 0 0 0 0.736001
0.8 0.005 0 0 0 0.652609
0.805 0.005 0 0 0 0.573563
0.81 0.005 0 0 0 0.498888
0.815 0.005 0 0 0 0.428593
0.82 0.005 0 0 0 0.362671
0.825 0.005 0 0 0 0.301101
0.83 0.005 0 0 0 0.243847
0.835 0.005 0 0 0 0.190861
0.84 0.005 0 0 0 0.142078
0.845 0.005 0 0 0 0.0974261
0.85 0.005 0 0 0 0.0568186
0.855 0.005 0 0 0 0.0201602
0.86 0.005 0 0 0 -0.012654
0.865 0.005 0 0 0 -0.0417373
0.87 0.005 0 0 0 -0.0672102
0.875 0.005 0 0 0 -0.0892
0.88 0.005 0 0 0 -0.10784
0.885 0.005 0 0 0 -0.123267
0.89 0.005 0 0 0 -0.135624
0.895 0.005 0 0 0 -0.145056
0.9 0.005 0 0 0 -0.151712
0.905 0.005 0 0 0 -0.155746
0.91 0.005 0 0 0 -0.15731
0.915 0.005 0 0 0 -0.156564
0.92 0.005 0 0 0 -0.153669
0.925 0.005 0 0 0 -0.148791
0.93 0.005 0 0 0 -0.142102
0.935 0.005 0 0 0 -0.133781
0.94 0.005 0 0 0 -0.124018
0.945 0.005 0 0 0 -0.113014
0.95 0.005 0 0 0 -0.100989
0.955 0.005 0 0 0 -0.0881853
0.96 0.005 0 0 0 -0.074873
0.965 0.005 0 0 0 -0.0613604
0.97 0.005 0 0 0 -0.0480032
0.975 0.005 0 0 0 -0.0352171
0.98 0.005 0 0 0 -0.0234904
0.985 0.005 0 0 0 -0.0133941
0.99 0.005 0 0 0 -0.00557313
0.995 0.005 0 0 0 -0.000673452
1 0.005 0 0 0 0.00093047
0 0.01 0 0 0.00093047 0
0.005 0.01 0 0 0 -326.272
0.01 0.01 -0.180044 0.0775884 -0.000921602 -44.4032
0.015 0.01 -0.18486 -0.0350025 -0.000775884 9.52973
0.02 0.01 -0.156381 -0.0351363 -0.000571577 19.1165
0.025 0.01 -0.127546 -0.0245779 -0.000424521 18.9901
0.03 0.01 -0.104137 -0.0166622 -0.000325797 16.8239
0.035 0.01 -0.0859037 -0.0116737 -0.000257898 14.4921
0.04 0.01 -0.0716524 -0.00854958 -0.000209061 12.4233
0.045 0.01 -0.0603401 -0.00651231 -0.000172402 10.6716
0.05 0.01 -0.0512119 -0.00511232 -0.000143938 9.20202
0.055 0.01 -0.0437437 -0.00410119 -0.000121279 7.96731
0.06 0.01 -0.0375685 -0.00333999 -0.000102926 6.92566
0.065 0.01 -0.0324236 -0.00274821 -8.78793e-05 6.04352
0.07 0.01 -0.0281144 -0.00227699 -7.54435e-05 5.29434
0.075 0.01 -0.0244927 -0.00189518 -6.51093e-05 4.65697
0.08 0.01 -0.0214425 -0.00158191 -5.64916e-05 4.11431
0.085 0.01 -0.0188711 -0.00132254 -4.92902e-05 3.65231
0.09 0.01 -0.016703 -0.00110638 -4.32662e-05 3.25927
0.095 0.01 -0.0148761 -0.000925337 -3.82264e-05 2.92538
0.1 0.01 -0.0133388 -0.000773123 -3.40128e-05 2.64233
0.105 0.01 -0.0120478 -0.000644741 -3.04951e-05 2.40304
0.11 0.01 -0.010967 -0.000536155 -2.75653e-05 2.20149
0.115 0.01 -0.0100657 -0.000444069 -2.51335e-05 2.03252
0.12 0.01 -0.00931825 -0.000365764 -2.31246e-05 1.89174
0.125 0.01 -0.00870283 -0.000298988 -2.14758e-05 1.77537
0.13 0.01 -0.00820105 -0.000241866 -2.01347e-05 1.68019
0.135 0.01 -0.00779738 -0.000192832 -1.90572e-05 1.60345
0.14 0.01 -0.00747867 -0.000150575 -1.82063e-05 1.54279
0.145 0.01 -0.00723383 -0.000113998 -1.75514e-05 1.49622
0.15 0.01 -0.00705347 -8.21813e-05 -1.70663e-05 1.46201
0.155 0.01 -0.00692968 -5.43536e-05 -1.67295e-05 1.43871
0.16 0.01 -0.00685576 -2.98679e-05 -1.65228e-05 1.42507
0.165 0.01 -0.00682608 -8.1821e-06 -1.64308e-05 1.42005
0.17 0.01 -0.00683586 1.11579e-05 -1.64409e-05 1.42272
0.175 0.01 -0.00688108 2.85319e-05 -1.65424e-05 1.43233
0.18 0.01 -0.00695834 4.42572e-05 -1.67262e-05 1.44823
0.185 0.01 -0.00706477 5.85985e-05 -1.69849e-05 1.46985
0.19 0.01 -0.00719793 7.17757e-05 -1.73122e-05 1.49672
0.195 0.01 -0.00735574 8.39714e-05 -1.77027e-05 1.52843
0.2 0.01 -0.00753646 9.53364e-05 -1.81519e-05 1.56463
0.205 0.01 -0.00773857 0.000105995 -1.8656e-05 1.60501
0.21 0.01 -0.00796076 0.000116048 -1.92118e-05 1.64931
0.215 0.01 -0.00820191 0.00012558 -1.98165e-05 1.6973
0.22 0.01 -0.00846104 0.000134656 -2.04676e-05 1.74878
0.225 0.01 -0.00873726 0.00014333 -2.1163e-05 1.80356
0.23 0.01 -0.00902979 0.000151645 -2.19009e-05 1.86147
0.235 0.01 -0.00933791 0.000159633 -2.26795e-05 1.92237
0.24 0.01 -0.00966098 0.000167319 -2.34972e-05 1.98612
0.245 0.01 -0.00999837 0.000174721 -2.43527e-05 2.05259
0.25 0.01 -0.0103495 0.000181852 -2.52444e-05 2.12164
0.255 0.01 -0.0107138 0.00018872 -2.61712e-05 2.19316
0.26 0.01 -0.0110907 0.000195328 -2.71316e-05 2.26703
0.265 0.01 -0.0114796 0.000201678 -2.81245e-05 2.34314
0.27 0.01 -0.0118801 0.000207767 -2.91484e-05 2.42136
0.275 0.01 -0.0122915 0.000213591 -3.02021e-05 2.50158
0.28 0.01 -0.0127133 0.000219142 -3.12843e-05 2.58367
0.285 0.01 -0.013145 0.000224414 -3.23935e-05 2.66753
0.29 0.01 -0.0135858 0.000229397 -3.35284e-05 2.75302
0.295 0.01 -0.0140353 0.00023408 -3.46875e-05 2.84002
0.3 0.01 -0.0144927 0.000238451 -3.58692e-05 2.92839
0.305 0.01 -0.0149575 0.0002425 -3.7072e-05 3.01802
0.31 0.01 -0.0154289 0.000246212 -3.82942e-05 3.10875
0.315 0.01 -0.0159063 0.000249575 -3.95342e-05 3.20044
0.32 0.01 -0.016389 0.000252576 -4.079e-05 3.29296
0.325 0.01 -0.0168762 0.000255202 -4.20599e-05 3.38616
0.33 0.01 -0.0173671 0.000257439 -4.33421e-05 3.47988
0.335 0.01 -0.017861 0.000259275 -4.46344e-05 3.57397
0.34 0.01 -0.018357 0.000260696 -4.59348e-05 3.66827
0.345 0.01 -0.0188544 0.00026169 -4.72413e-05 3.76261
0.35 0.01 -0.0193523 0.000262245 -4.85517e-05 3.85683
0.355 0.01 -0.0198498 0.00026235 -4.98638e-05 3.95077
0.36 0.01 -0.020346 0.000261994 -5.11753e-05 4.04425
0.365 0.01 -0.02084 0.000261166 -5.24838e-05 4.1371
0.37 0.01 -0.021331 0.000259857 -5.3787e-05 4.22915
0.375 0.01 -0.021818 0.00025806 -5.50824e-05 4.32021
0.38 0.01 -0.0223001 0.000255765 -5.63676e-05 4.41012
0.385 0.01 -0.0227762 0.000252968 -5.76401e-05 4.49868
0.39 0.01 -0.0232456 0.000249661 -5.88973e-05 4.58573
0.395 0.01 -0.0237071 0.000245842 -6.01368e-05 4.67108
0.4 0.01 -0.0241598 0.000241505 -6.13558e-05 4.75455
0.405 0.01 -0.0246028 0.000236649 -6.25519e-05 4.83596
0.41 0.01 -0.0250352 0.000231274 -6.37224e-05 4.91515
0.415 0.01 -0.0254558 0.000225379 -6.48647e-05 4.99192
0.42 0.01 -0.0258639 0.000218966 -6.59762e-05 5.06611
0.425 0.01 -0.0262583 0.000212038 -6.70544e-05 5.13755
0.43 0.01 -0.0266383 0.0002046 -6.80967e-05 5.20607
0.435 0.01 -0.0270029 0.000196656 -6.91005e-05 5.27149
0.44 0.01 -0.0273512 0.000188214 -7.00633e-05 5.33367
0.445 0.01 -0.0276822 0.000179283 -7.09827e-05 5.39243
0.45 0.01 -0.0279952 0.000169872 -7.18562e-05 5.44764
0.455 0.01 -0.0282892 0.000159993 -7.26815e-05 5.49913
0.46 0.01 -0.0285635 0.000149658 -7.34562e-05 5.54678
0.465 0.01 -0.0288172 0.000138883 -7.41781e-05 5.59044
0.47 0.01 -0.0290497 0.000127683 -7.48451e-05 5.62998
0.475 0.01 -0.0292601 0.000116075 -7.54551e-05 5.66528
0.48 0.01 -0.0294478 0.000104077 -7.6006e-05 5.69622
0.485 0.01 -0.0296122 9.17116e-05 -7.64959e-05 5.7227
0.49 0.01 -0.0297526 7.89987e-05 -7.69232e-05 5.74461
0.495 0.01 -0.0298685 6.59619e-05 -7.7286e-05 5.76186
0.5 0.01 -0.0299593 5.26259e-05 -7.75829e-05 5.77438
0.505 0.01 -0.0300245 3.90166e-05 -7.78124e-05 5.78207
0.51 0.01 -0.0300638 2.51613e-05 -7.79732e-05 5.78489
0.515 0.01 -0.0300768 1.10886e-05 -7.80641e-05 5.78278
0.52 0.01 -0.0300632 -3.1715e-06 -7.80842e-05 5.77568
0.525 0.01 -0.0300227 -1.75879e-05 -7.80325e-05 5.76357
0.53 0.01 -0.029955 -3.21283e-05 -7.79084e-05 5.74643
0.535 0.01 -0.0298602 -4.67594e-05 -7.77114e-05 5.72424
0.54 0.01 -0.029738 -6.14468e-05 -7.7441e-05 5.69699
0.545 0.01 -0.0295885 -7.61551e-05 -7.7097e-05 5.66471
0.55 0.01 -0.0294117 -9.08482e-05 -7.66795e-05 5.6274
0.555 0.01 -0.0292078 -0.000105489 -7.61887e-05 5.58512
0.56 0.01 -0.0289769 -0.000120041 -7.56248e-05 5.53789
0.565 0.01 -0.0287193 -0.000134465 -7.49884e-05 5.48578
0.57 0.01 -0.0284352 -0.000148723 -7.42803e-05 5.42885
0.575 0.01 -0.0281252 -0.000162776 -7.35013e-05 5.36719
0.58 0.01 -0.0277896 -0.000176586 -7.26526e-05 5.30089
0.585 0.01 -0.0274289 -0.000190114 -7.17356e-05 5.23006
0.59 0.01 -0.0270438 -0.000203321 -7.07516e-05 5.1548
0.595 0.01 -0.026635 -0.00021617 -6.97025e-05 5.07526
0.6 0.01 -0.026203 -0.000228623 -6.859e-05 4.99156
0.605 0.01 -0.0257488 -0.000240643 -6.74164e-05 4.90386
0.61 0.01 -0.0252732 -0.000252193 -6.61837e-05 4.81232
0.615 0.01 -0.0247771 -0.00026324 -6.48946e-05 4.71711
0.62 0.01 -0.0242614 -0.000273749 -6.35515e-05 4.61842
0.625 0.01 -0.0237273 -0.000283688 -6.21572e-05 4.51642
0.63 0.01 -0.0231758 -0.000293027 -6.07147e-05 4.41133
0.635 0.01 -0.022608 -0.000301737 -5.92271e-05 4.30335
0.64 0.01 -0.0220251 -0.000309792 -5.76975e-05 4.1927
0.645 0.01 -0.0214284 -0.000317165 -5.61293e-05 4.07961
0.65 0.01 -0.0208191 -0.000323836 -5.45259e-05 3.96429
0.655 0.01 -0.0201985 -0.000329783 -5.2891e-05 3.847
0.66 0.01 -0.019568 -0.000334991 -5.12282e-05 3.72797
0.665 0.01 -0.0189289 -0.000339445 -4.95412e-05 3.60744
0.67 0.01 -0.0182826 -0.000343132 -4.78338e-05 3.48567
0.675 0.01 -0.0176305 -0.000346044 -4.611e-05 3.36291
0.68 0.01 -0.0169741 -0.000348175 -4.43735e-05 3.23941
0.685 0.01 -0.0163147 -0.000349524 -4.26283e-05 3.11544
0.69 0.01 -0.0156538 -0.00035009 -4.08783e-05 2.99123
0.695 0.01 -0.0149928 -0.000349877 -3.91275e-05 2.86705
0.7 0.01 -0.0143331 -0.000348893 -3.73797e-05 2.74315
0.705 0.01 -0.0136761 -0.000347147 -3.56386e-05 2.61978
0.71 0.01 -0.0130232 -0.000344653 -3.39082e-05 2.49719
0.715 0.01 -0.0123757 -0.000341428 -3.21922e-05 2.37561
0.72 0.01 -0.0117348 -0.000337492 -3.0494e-05 2.25528
0.725 0.01 -0.011102 -0.000332865 -2.88173e-05 2.13643
0.73 0.01 -0.0104785 -0.000327575 -2.71654e-05 2.01928
0.735 0.01 -0.00986531 -0.000321648 -2.55416e-05 1.90404
0.74 0.01 -0.0092637 -0.000315116 -2.3949e-05 1.79093
0.745 0.01 -0.00867473 -0.00030801 -2.23905e-05 1.68013
0.75 0.01 -0.0080994 -0.000300366 -2.08689e-05 1.57183
0.755 0.01 -0.00753868 -0.000292221 -1.93869e-05 1.4662
0.76 0.01 -0.00699346 -0.000283613 -1.79467e-05 1.36341
0.765 0.01 -0.00646455 -0.000274582 -1.65508e-05 1.26361
0.77 0.01 -0.0059527 -0.000265169 -1.52009e-05 1.16692
0.775 0.01 -0.00545859 -0.000255416 -1.38991e-05 1.07349
0.78 0.01 -0.00498281 -0.000245365 -1.26468e-05 0.983419
0.785 0.01 -0.00452589 -0.00023506 -1.14454e-05 0.896805
0.79 0.01 -0.00408827 -0.000224544 -1.02962e-05 0.813735
0.795 0.01 -0.00367032 -0.000213858 -9.20001e-06 0.734279
0.8 0.01 -0.00327233 -0.000203047 -8.15762e-06 0.658496
0.805 0.01 -0.00289452 -0.000192152 -7.16954e-06 0.586429
0.81 0.01 -0.00253702 -0.000181213 -6.2361e-06 0.518109
0.815 0.01 -0.0021999 -0.000170271 -5.3574e-06 0.453554
0.82 0.01 -0.00188316 -0.000159364 -4.53338e-06 0.392769
0.825 0.01 -0.00158672 -0.000148529 -3.76375e-06 0.335746
0.83 0.01 -0.00131044 -0.0001378 -3.04808e-06 0.282464
0.835 0.01 -0.00105413 -0.00012721 -2.38575e-06 0.232894
0.84 0.01 -0.00081751 -0.000116792 -1.77597e-06 0.186992
0.845 0.01 -0.00060027 -0.000106573 -1.21781e-06 0.144705
0.85 0.01 -0.000402038 -9.65811e-05 -7.10218e-07 0.105972
0.855 0.01 -0.000222394 -8.68394e-05 -2.51988e-07 0.0707203
0.86 0.01 -6.08723e-05 -7.73703e-05 1.58191e-07 0.0388693
0.865 0.01 8.30307e-05 -6.81937e-05 5.21731e-07 0.0103311
0.87 0.01 0.000209857 -5.93268e-05 8.40143e-07 -0.0149901
0.875 0.01 0.000320181 -5.07851e-05 1.11502e-06 -0.0371964
0.88 0.01 0.000414607 -4.25818e-05 1.34801e-06 -0.0563961
0.885 0.01 0.000493764 -3.47284e-05 1.54085e-06 -0.0727028
0.89 0.01 0.000558305 -2.72348e-05 1.69531e-06 -0.0862354
0.895 0.01 0.000608904 -2.01097e-05 1.81321e-06 -0.0971173
0.9 0.01 0.000646254 -1.33608e-05 1.89642e-06 -0.105476
0.905 0.01 0.000671064 -6.99556e-06 1.94683e-06 -0.111445
0.91 0.01 0.000684063 -1.02156e-06 1.96639e-06 -0.115159
0.915 0.01 0.000685998 4.55283e-06 1.95706e-06 -0.11676
0.92 0.01 0.000677637 9.71754e-06 1.92087e-06 -0.116394
0.925 0.01 0.000659773 1.44599e-05 1.8599e-06 -0.114212
0.93 0.01 0.000633228 1.87634e-05 1.77628e-06 -0.110373
0.935 0.01 0.000598866 2.26063e-05 1.67227e-06 -0.105044
0.94 0.01 0.000557595 2.59599e-05 1.55023e-06 -0.0983999
0.945 0.01 0.000510389 2.87864e-05 1.41268e-06 -0.0906308
0.95 0.01 0.000458297 3.10365e-05 1.26237e-06 -0.0819398
0.955 0.01 0.00040247 3.26459e-05 1.10232e-06 -0.0725483
0.96 0.01 0.000344181 3.35316e-05 9.35916e-07 -0.0626991
0.965 0.01 0.000284857 3.35876e-05 7.67008e-07 -0.0526601
0.97 0.01 0.000226111 3.26794e-05 6.00043e-07 -0.0427266
0.975 0.01 0.000169773 3.06413e-05 4.40215e-07 -0.0332218
0.98 0.01 0.000117914 2.72788e-05 2.93631e-07 -0.0244906
0.985 0.01 7.28368e-05 2.23967e-05 1.67427e-07 -0.0168783
0.99 0.01 3.69731e-05 1.59009e-05 6.96641e-08 -0.0106768
0.995 0.01 1.25677e-05 8.1295e-06 8.41806e-09 -0.00600155
1 0.01 8.40882e-07 8.41806e-07 -1.1631e-08 -0.00253404
0 0.015 0 0 -0.000672706 0
0.005 0.015 0 0 0 -255.964
0.01 0.015 -0.152855 0.18486 -0.00180044 -79.2569
0.015 0.015 -0.206239 -0.0236629 -0.0018486 -16.6394
0.02 0.015 -0.204584 -0.0573141 -0.00156381 2.31196
0.025 0.015 -0.184569 -0.0522447 -0.00127546 7.92305
0.03 0.015 -0.161055 -0.0416423 -0.00104137 9.24679
0.035 0.015 -0.139031 -0.0324843 -0.000859037 9.11418
0.04 0.015 -0.119786 -0.0255636 -0.000716524 8.4929
0.045 0.015 -0.103356 -0.0204405 -0.000603401 7.73621
0.05 0.015 -0.08942 -0.0165964 -0.000512119 6.97745
0.055 0.015 -0.0776042 -0.0136434 -0.000437436 6.26635
0.06 0.015 -0.0675706 -0.01132 -0.000375685 5.61954
0.065 0.015 -0.059036 -0.00945417 -0.000324236 5.04017
0.07 0.015 -0.0517672 -0.00793093 -0.000281144 4.5259
0.075 0.015 -0.0455725 -0.00667188 -0.000244926 4.07225
0.08 0.015 -0.0402929 -0.00562157 -0.000214425 3.67401
0.085 0.015 -0.0357956 -0.00473947 -0.000188711 3.32593
0.09 0.015 -0.0319689 -0.00399495 -0.00016703 3.02294
0.095 0.015 -0.0287181 -0.0033642 -0.000148761 2.7603
0.1 0.015 -0.0259627 -0.00282827 -0.000133388 2.53366
0.105 0.015 -0.0236341 -0.00237178 -0.000120478 2.33905
0.11 0.015 -0.0216735 -0.0019821 -0.00010967 2.17289
0.115 0.015 -0.0200308 -0.00164872 -0.000100657 2.03197
0.12 0.015 -0.018663 -0.00136288 -9.31824e-05 1.91341
0.125 0.015 -0.0175335 -0.00111719 -8.70282e-05 1.81468
0.13 0.015 -0.0166108 -0.000905441 -8.20104e-05 1.73351
0.135 0.015 -0.0158681 -0.00072237 -7.79736e-05 1.66792
0.14 0.015 -0.0152826 -0.000563539 -7.47866e-05 1.61616
0.145 0.015 -0.0148346 -0.000425188 -7.23381e-05 1.57671
0.15 0.015 -0.0145076 -0.000304138 -7.05346e-05 1.54822
0.155 0.015 -0.0142874 -0.000197697 -6.92967e-05 1.52953
0.16 0.015 -0.0141618 -0.00010359 -6.85575e-05 1.51962
0.165 0.015 -0.0141205 -1.98948e-05 -6.82607e-05 1.51762
0.17 0.015 -0.0141549 5.50104e-05 -6.83585e-05 1.52275
0.175 0.015 -0.0142575 0.000122492 -6.88107e-05 1.53436
0.18 0.015 -0.0144219 0.000183698 -6.95833e-05 1.55185
0.185 0.015 -0.0146426 0.000239593 -7.06476e-05 1.57473
0.19 0.015 -0.0149151 0.000290984 -7.19792e-05 1.60256
0.195 0.015 -0.0152354 0.000338542 -7.35574e-05 1.63495
0.2 0.015 -0.0156001 0.000382829 -7.53645e-05 1.67158
0.205 0.015 -0.0160062 0.000424305 -7.73856e-05 1.71214
0.21 0.015 -0.0164511 0.000463353 -7.96075e-05 1.75637
0.215 0.015 -0.0169326 0.000500283 -8.20191e-05 1.80404
0.22 0.015 -0.0174488 0.00053535 -8.46103e-05 1.85494
0.225 0.015 -0.0179978 0.000568756 -8.73725e-05 1.90887
0.23 0.015 -0.0185779 0.000600663 -9.02978e-05 1.96567
0.235 0.015 -0.0191879 0.000631198 -9.33791e-05 2.02516
0.24 0.015 -0.0198262 0.000660456 -9.66098e-05 2.0872
0.245 0.015 -0.0204916 0.000688509 -9.99836e-05 2.15165
0.25 0.015 -0.0211828 0.000715408 -0.000103495 2.21836
0.255 0.015 -0.0218987 0.000741185 -0.000107138 2.28719
0.26 0.015 -0.022638 0.000765857 -0.000110907 2.35803
0.265 0.015 -0.0233997 0.000789429 -0.000114796 2.43073
0.27 0.015 -0.0241825 0.000811896 -0.000118801 2.50517
0.275 0.015 -0.0249853 0.000833242 -0.000122915 2.58123
0.28 0.015 -0.0258069 0.000853446 -0.000127133 2.65876
0.285 0.015 -0.0266461 0.000872481 -0.00013145 2.73765
0.29 0.015 -0.0275017 0.000890313 -0.000135858 2.81775
0.295 0.015 -0.0283724 0.000906906 -0.000140353 2.89893
0.3 0.015 -0.0292569 0.00092222 -0.000144927 2.98107
0.305 0.015 -0.030154 0.000936213 -0.000149575 3.06401
0.31 0.015 -0.0310621 0.00094884 -0.000154289 3.14762
0.315 0.015 -0.03198 0.000960057 -0.000159064 3.23176
0.32 0.015 -0.0329062 0.000969819 -0.00016389 3.31628
0.325 0.015 -0.0338392 0.00097808 -0.000168762 3.40103
0.33 0.015 -0.0347775 0.000984796 -0.000173671 3.48587
0.335 0.015 -0.0357195 0.000989921 -0.00017861 3.57063
0.34 0.015 -0.0366637 0.000993415 -0.00018357 3.65518
0.345 0.015 -0.0376084 0.000995235 -0.000188544 3.73935
0.35 0.015 -0.038552 0.000995344 -0.000193523 3.82299
0.355 0.015 -0.0394929 0.000993704 -0.000198498 3.90593
0.36 0.015 -0.0404292 0.000990281 -0.00020346 3.98803
0.365 0.015 -0.0413593 0.000985045 -0.000208401 4.06913
0.37 0.015 -0.0422814 0.000977968 -0.000213311 4.14906
0.375 0.015 -0.0431937 0.000969026 -0.00021818 4.22767
0.38 0.015 -0.0440946 0.000958197 -0.000223001 4.30481
0.385 0.015 -0.0449821 0.000945465 -0.000227763 4.3803
0.39 0.015 -0.0458545 0.000930816 -0.000232456 4.45401
0.395 0.015 -0.04671 0.000914243 -0.000237071 4.52577
0.4 0.015 -0.0475469 0.000895741 -0.000241598 4.59544
0.405 0.015 -0.0483632 0.000875309 -0.000246029 4.66286
0.41 0.015 -0.0491573 0.000852953 -0.000250352 4.72789
0.415 0.015 -0.0499273 0.000828681 -0.000254558 4.79038
0.42 0.015 -0.0506716 0.000802508 -0.000258639 4.8502
0.425 0.015 -0.0513884 0.000774453 -0.000262584 4.9072
0.43 0.015 -0.052076 0.000744539 -0.000266384 4.96127
0.435 0.015 -0.0527328 0.000712796 -0.000270029 5.01226
0.44 0.015 -0.0533571 0.000679257 -0.000273512 5.06005
0.445 0.015 -0.0539473 0.000643961 -0.000276822 5.10453
0.45 0.015 -0.054502 0.000606953 -0.000279952 5.14558
0.455 0.015 -0.0550197 0.000568282 -0.000282892 5.1831
0.46 0.015 -0.0554988 0.000528001 -0.000285635 5.21699
0.465 0.015 -0.055938 0.000486171 -0.000288172 5.24715
0.47 0.015 -0.0563361 0.000442856 -0.000290497 5.27348
0.475 0.015 -0.0566918 0.000398126 -0.000292601 5.29592
0.48 0.015 -0.0570039 0.000352056 -0.000294479 5.31439
0.485 0.015 -0.0572713 0.000304724 -0.000296122 5.32881
0.49 0.015 -0.057493 0.000256216 -0.000297526 5.33913
0.495 0.015 -0.0576681 0.000206621 -0.000298685 5.34529
0.5 0.015 -0.0577957 0.000156033 -0.000299593 5.34726
0.505 0.015 -0.0578751 0.00010455 -0.000300246 5.34499
0.51 0.015 -0.0579056 5.22752e-05 -0.000300639 5.33846
0.515 0.015 -0.0578867 -6.83543e-07 -0.000300769 5.32765
0.52 0.015 -0.0578179 -5.42153e-05 -0.000300633 5.31254
0.525 0.015 -0.0576989 -0.000108205 -0.000300227 5.29313
0.53 0.015 -0.0575293 -0.000162534 -0.000299551 5.26943
0.535 0.015 -0.0573092 -0.000217079 -0.000298602 5.24146
0.54 0.015 -0.0570383 -0.000271716 -0.000297381 5.20923
0.545 0.015 -0.056717 -0.000326316 -0.000295886 5.17277
0.55 0.015 -0.0563452 -0.00038075 -0.000294118 5.13214
0.555 0.015 -0.0559234 -0.000434883 -0.000292079 5.08738
0.56 0.015 -0.0554521 -0.000488582 -0.00028977 5.03854
0.565 0.015 -0.0549317 -0.000541711 -0.000287193 4.9857
0.57 0.015 -0.0543629 -0.000594134 -0.000284353 4.92894
0.575 0.015 -0.0537466 -0.000645713 -0.000281252 4.86833
0.58 0.015 -0.0530837 -0.000696311 -0.000277896 4.80397
0.585 0.015 -0.0523752 -0.000745793 -0.00027429 4.73596
0.59 0.015 -0.0516223 -0.000794023 -0.000270439 4.66442
0.595 0.015 -0.0508262 -0.000840867 -0.00026635 4.58945
0.6 0.015 -0.0499884 -0.000886194 -0.000262031 4.5112
0.605 0.015 -0.0491104 -0.000929876 -0.000257489 4.42978
0.61 0.015 -0.0481936 -0.000971787 -0.000252732 4.34535
0.615 0.015 -0.04724 -0.00101181 -0.000247771 4.25804
0.62 0.015 -0.0462513 -0.00104982 -0.000242615 4.16802
0.625 0.015 -0.0452293 -0.00108571 -0.000237274 4.07545
0.63 0.015 -0.0441762 -0.00111938 -0.000231758 3.98049
0.635 0.015 -0.043094 -0.00115072 -0.00022608 3.88331
0.64 0.015 -0.0419849 -0.00117965 -0.000220251 3.78409
0.645 0.015 -0.0408511 -0.00120608 -0.000214284 3.68301
0.65 0.015 -0.039695 -0.00122994 -0.000208191 3.58027
0.655 0.015 -0.0385189 -0.00125115 -0.000201985 3.47605
0.66 0.015 -0.0373253 -0.00126965 -0.00019568 3.37054
0.665 0.015 -0.0361166 -0.00128541 -0.000189289 3.26394
0.67 0.015 -0.0348954 -0.00129838 -0.000182826 3.15644
0.675 0.015 -0.0336642 -0.00130853 -0.000176306 3.04826
0.68 0.015 -0.0324255 -0.00131584 -0.000169741 2.93958
0.685 0.015 -0.0311819 -0.00132031 -0.000163148 2.83061
0.69 0.015 -0.029936 -0.00132193 -0.000156539 2.72154
0.695 0.015 -0.0286904 -0.00132074 -0.000149929 2.61259
0.7 0.015 -0.0274476 -0.00131674 -0.000143332 2.50394
0.705 0.015 -0.02621 -0.00130997 -0.000136761 2.3958
0.71 0.015 -0.0249802 -0.0013005 -0.000130232 2.28835
0.715 0.015 -0.0237607 -0.00128836 -0.000123757 2.18178
0.72 0.015 -0.0225537 -0.00127364 -0.000117349 2.07629
0.725 0.015 -0.0213616 -0.00125641 -0.000111021 1.97205
0.73 0.015 -0.0201866 -0.00123675 -0.000104785 1.86924
0.735 0.015 -0.0190309 -0.00121478 -9.86532e-05 1.76803
0.74 0.015 -0.0178965 -0.0011906 -9.26372e-05 1.66858
0.745 0.015 -0.0167854 -0.00116432 -8.67474e-05 1.57106
0.75 0.015 -0.0156994 -0.00113606 -8.09942e-05 1.4756
0.755 0.015 -0.0146404 -0.00110596 -7.5387e-05 1.38235
0.76 0.015 -0.0136099 -0.00107415 -6.99347e-05 1.29145
0.765 0.015 -0.0126095 -0.00104077 -6.46456e-05 1.20302
0.77 0.015 -0.0116405 -0.00100597 -5.95271e-05 1.11718
0.775 0.015 -0.0107041 -0.000969898 -5.4586e-05 1.03403
0.78 0.015 -0.0098016 -0.000932706 -4.98282e-05 0.953672
0.785 0.015 -0.00893387 -0.000894546 -4.52589e-05 0.876188
0.79 0.015 -0.00810178 -0.000855574 -4.08827e-05 0.801657
0.795 0.015 -0.00730605 -0.000815943 -3.67032e-05 0.730146
0.8 0.015 -0.00654724 -0.000775806 -3.27233e-05 0.661711
0.805 0.015 -0.0058258 -0.000735315 -2.89452e-05 0.596397
0.81 0.015 -0.00514203 -0.000694618 -2.53702e-05 0.534239
0.815 0.015 -0.0044961 -0.000653859 -2.1999e-05 0.475263
0.82 0.015 -0.00388804 -0.000613179 -1.88316e-05 0.419484
0.825 0.015 -0.00331778 -0.000572712 -1.58672e-05 0.366905
0.83 0.015 -0.00278511 -0.000532589 -1.31044e-05 0.317522
0.835 0.015 -0.0022897 -0.000492931 -1.05412e-05 0.271321