Title=" Lid Driven Flow"
VARIABLES="X","Y","U","V","psi","xi"
ZONE T= "BOX", I= 101, J=101, F=POINT
0 0 0 0 -115.329 0
0.01 0 0 0 0 0
0.02 0 0 0 0 0
0.03 0 0 0 0 -262.602
0.04 0 0 0 0 -221.516
0.05 0 0 0 0 -186.568
0.06 0 0 0 0 -158.255
0.07 0 0 0 0 -135.72
0.08 0 0 0 0 -117.918
0.09 0 0 0 0 -103.879
0.1 0 0 0 0 -92.7796
0.11 0 0 0 0 -83.9515
0.12 0 0 0 0 -76.8634
0.13 0 0 0 0 -71.1017
0.14 0 0 0 0 -66.3472
0.15 0 0 0 0 -62.3562
0.16 0 0 0 0 -58.9433
0.17 0 0 0 0 -55.9686
0.18 0 0 0 0 -53.3267
0.19 0 0 0 0 -50.9389
0.2 0 0 0 0 -48.7467
0.21 0 0 0 0 -46.7069
0.22 0 0 0 0 -44.7882
0.23 0 0 0 0 -42.9681
0.24 0 0 0 0 -41.2307
0.25 0 0 0 0 -39.565
0.26 0 0 0 0 -37.9639
0.27 0 0 0 0 -36.4227
0.28 0 0 0 0 -34.9388
0.29 0 0 0 0 -33.5108
0.3 0 0 0 0 -32.1382
0.31 0 0 0 0 -30.8212
0.32 0 0 0 0 -29.56
0.33 0 0 0 0 -28.3551
0.34 0 0 0 0 -27.207
0.35 0 0 0 0 -26.1158
0.36 0 0 0 0 -25.0817
0.37 0 0 0 0 -24.1046
0.38 0 0 0 0 -23.1842
0.39 0 0 0 0 -22.3198
0.4 0 0 0 0 -21.5106
0.41 0 0 0 0 -20.7556
0.42 0 0 0 0 -20.0536
0.43 0 0 0 0 -19.4031
0.44 0 0 0 0 -18.8028
0.45 0 0 0 0 -18.2509
0.46 0 0 0 0 -17.7457
0.47 0 0 0 0 -17.2854
0.48 0 0 0 0 -16.8683
0.49 0 0 0 0 -16.4924
0.5 0 0 0 0 -16.156
0.51 0 0 0 0 -15.8572
0.52 0 0 0 0 -15.5942
0.53 0 0 0 0 -15.3652
0.54 0 0 0 0 -15.1686
0.55 0 0 0 0 -15.0026
0.56 0 0 0 0 -14.8657
0.57 0 0 0 0 -14.7564
0.58 0 0 0 0 -14.6731
0.59 0 0 0 0 -14.6144
0.6 0 0 0 0 -14.5791
0.61 0 0 0 0 -14.5658
0.62 0 0 0 0 -14.5733
0.63 0 0 0 0 -14.6006
0.64 0 0 0 0 -14.6466
0.65 0 0 0 0 -14.7103
0.66 0 0 0 0 -14.7909
0.67 0 0 0 0 -14.8877
0.68 0 0 0 0 -14.9999
0.69 0 0 0 0 -15.127
0.7 0 0 0 0 -15.2689
0.71 0 0 0 0 -15.4252
0.72 0 0 0 0 -15.5961
0.73 0 0 0 0 -15.782
0.74 0 0 0 0 -15.9836
0.75 0 0 0 0 -16.202
0.76 0 0 0 0 -16.4389
0.77 0 0 0 0 -16.6966
0.78 0 0 0 0 -16.9782
0.79 0 0 0 0 -17.2878
0.8 0 0 0 0 -17.6306
0.81 0 0 0 0 -18.0134
0.82 0 0 0 0 -18.4447
0.83 0 0 0 0 -18.9353
0.84 0 0 0 0 -19.4987
0.85 0 0 0 0 -20.1515
0.86 0 0 0 0 -20.9152
0.87 0 0 0 0 -21.8146
0.88 0 0 0 0 -22.8839
0.89 0 0 0 0 -24.1586
0.9 0 0 0 0 -25.6963
0.91 0 0 0 0 -27.5421
0.92 0 0 0 0 -29.8062
0.93 0 0 0 0 -32.5237
0.94 0 0 0 0 -35.9586
0.95 0 0 0 0 -40.0274
0.96 0 0 0 0 -45.5642
0.97 0 0 0 0 -51.8131
0.98 0 0 0 0 -62.1927
0.99 0 0 0 0 -72.1668
1 0 0 0 0 -100.294
0 0.01 0 0 0 0
0.01 0.01 0 0 0 0
0.02 0.01 0 0 0 0.00290061
0.03 0.01 0 0 0 -0.0124214
0.04 0.01 0 0 0 -0.0444493
0.05 0.01 0 0 0 -0.0866089
0.06 0.01 0 0 0 -0.132914
0.07 0.01 0 0 0 -0.178873
0.08 0.01 0 0 0 -0.221355
0.09 0.01 0 0 0 -0.258309
0.1 0.01 0 0 0 -0.288522
0.11 0.01 0 0 0 -0.311409
0.12 0.01 0 0 0 -0.326848
0.13 0.01 0 0 0 -0.33502
0.14 0.01 0 0 0 -0.336282
0.15 0.01 0 0 0 -0.331054
0.16 0.01 0 0 0 -0.319726
0.17 0.01 0 0 0 -0.302593
0.18 0.01 0 0 0 -0.279809
0.19 0.01 0 0 0 -0.251364
0.2 0.01 0 0 0 -0.217086
0.21 0.01 0 0 0 -0.176651
0.22 0.01 0 0 0 -0.129611
0.23 0.01 0 0 0 -0.075427
0.24 0.01 0 0 0 -0.0135034
0.25 0.01 0 0 0 0.0567741
0.26 0.01 0 0 0 0.136007
0.27 0.01 0 0 0 0.224756
0.28 0.01 0 0 0 0.323511
0.29 0.01 0 0 0 0.432672
0.3 0.01 0 0 0 0.552524
0.31 0.01 0 0 0 0.683218
0.32 0.01 0 0 0 0.824745
0.33 0.01 0 0 0 0.976925
0.34 0.01 0 0 0 1.13938
0.35 0.01 0 0 0 1.3115
0.36 0.01 0 0 0 1.49248
0.37 0.01 0 0 0 1.68124
0.38 0.01 0 0 0 1.87646
0.39 0.01 0 0 0 2.07657
0.4 0.01 0 0 0 2.27973
0.41 0.01 0 0 0 2.48386
0.42 0.01 0 0 0 2.68666
0.43 0.01 0 0 0 2.8856
0.44 0.01 0 0 0 3.07799
0.45 0.01 0 0 0 3.26097
0.46 0.01 0 0 0 3.4316
0.47 0.01 0 0 0 3.58685
0.48 0.01 0 0 0 3.72371
0.49 0.01 0 0 0 3.83923
0.5 0.01 0 0 0 3.93057
0.51 0.01 0 0 0 3.99509
0.52 0.01 0 0 0 4.03042
0.53 0.01 0 0 0 4.03452
0.54 0.01 0 0 0 4.00576
0.55 0.01 0 0 0 3.94301
0.56 0.01 0 0 0 3.84566
0.57 0.01 0 0 0 3.71373
0.58 0.01 0 0 0 3.54789
0.59 0.01 0 0 0 3.34948
0.6 0.01 0 0 0 3.12056
0.61 0.01 0 0 0 2.86387
0.62 0.01 0 0 0 2.58281
0.63 0.01 0 0 0 2.2814
0.64 0.01 0 0 0 1.96419
0.65 0.01 0 0 0 1.63618
0.66 0.01 0 0 0 1.30265
0.67 0.01 0 0 0 0.969049
0.68 0.01 0 0 0 0.640854
0.69 0.01 0 0 0 0.323376
0.7 0.01 0 0 0 0.0216155
0.71 0.01 0 0 0 -0.259888
0.72 0.01 0 0 0 -0.517194
0.73 0.01 0 0 0 -0.747073
0.74 0.01 0 0 0 -0.947081
0.75 0.01 0 0 0 -1.11562
0.76 0.01 0 0 0 -1.25192
0.77 0.01 0 0 0 -1.35606
0.78 0.01 0 0 0 -1.42887
0.79 0.01 0 0 0 -1.47188
0.8 0.01 0 0 0 -1.48718
0.81 0.01 0 0 0 -1.47732
0.82 0.01 0 0 0 -1.44517
0.83 0.01 0 0 0 -1.39381
0.84 0.01 0 0 0 -1.32636
0.85 0.01 0 0 0 -1.24591
0.86 0.01 0 0 0 -1.15538
0.87 0.01 0 0 0 -1.05747
0.88 0.01 0 0 0 -0.954611
0.89 0.01 0 0 0 -0.848886
0.9 0.01 0 0 0 -0.742069
0.91 0.01 0 0 0 -0.635648
0.92 0.01 0 0 0 -0.530901
0.93 0.01 0 0 0 -0.429031
0.94 0.01 0 0 0 -0.331358
0.95 0.01 0 0 0 -0.239579
0.96 0.01 0 0 0 -0.1561
0.97 0.01 0 0 0 -0.0843944
0.98 0.01 0 0 0 -0.0292343
0.99 0.01 0 0 0 0.00372383
1 0.01 0 0 0 0.0107204
0 0.02 0 0 0.0107204 0
0.01 0.02 0 0 0 0.00290061
0.02 0.02 2.06016e-05 -2.07024e-05 -9.66869e-08 -0.0121283
0.03 0.02 0.000149178 -7.89165e-05 4.14047e-07 -0.0271232
0.04 0.02 0.000368618 -0.000123646 1.48164e-06 -0.0474679
0.05 0.02 0.000645167 -0.000147441 2.88697e-06 -0.0726759
0.06 0.02 0.000945705 -0.000153774 4.43046e-06 -0.100417
0.07 0.02 0.00124293 -0.000147402 5.96244e-06 -0.128178
0.08 0.02 0.0015162 -0.000132394 7.3785e-06 -0.153828
0.09 0.02 0.00175095 -0.000111944 8.61032e-06 -0.175736
0.1 0.02 0.00193773 -8.84997e-05 9.61739e-06 -0.192756
0.11 0.02 0.00207119 -6.38768e-05 1.03803e-05 -0.20415
0.12 0.02 0.0021491 -3.93508e-05 1.08949e-05 -0.209499
0.13 0.02 0.00217135 -1.57237e-05 1.11673e-05 -0.208621
0.14 0.02 0.00213917 6.60986e-06 1.12094e-05 -0.201483
0.15 0.02 0.00205435 2.75935e-05 1.10351e-05 -0.188134
0.16 0.02 0.00191865 4.74351e-05 1.06575e-05 -0.168643
0.17 0.02 0.00173332 6.65293e-05 1.00864e-05 -0.143052
0.18 0.02 0.00149884 8.53816e-05 9.32695e-06 -0.111342
0.19 0.02 0.00121468 0.000104537 8.3788e-06 -0.0734154
0.2 0.02 0.000879353 0.000124521 7.23621e-06 -0.029094
0.21 0.02 0.000490453 0.000145791 5.88838e-06 0.0218787
0.22 0.02 4.48476e-05 0.000168707 4.32038e-06 0.0798196
0.23 0.02 -0.000461103 0.000193513 2.51423e-06 0.145085
0.24 0.02 -0.00103129 0.000220335 4.50113e-07 0.218045
0.25 0.02 -0.0016696 0.000249184 -1.89247e-06 0.299056
0.26 0.02 -0.00237967 0.00027997 -4.53358e-06 0.388434
0.27 0.02 -0.00316466 0.000312506 -7.49186e-06 0.486431
0.28 0.02 -0.00402707 0.000346527 -1.07837e-05 0.593209
0.29 0.02 -0.00496852 0.000381689 -1.44224e-05 0.70882
0.3 0.02 -0.00598961 0.000417576 -1.84175e-05 0.833186
0.31 0.02 -0.00708975 0.000453702 -2.27739e-05 0.966083
0.32 0.02 -0.00826703 0.000489512 -2.74915e-05 1.10713
0.33 0.02 -0.00951809 0.000524383 -3.25642e-05 1.25576
0.34 0.02 -0.010838 0.000557631 -3.79792e-05 1.41124
0.35 0.02 -0.0122202 0.00058851 -4.37168e-05 1.57265
0.36 0.02 -0.0136563 0.000616232 -4.97494e-05 1.73887
0.37 0.02 -0.0151364 0.000639969 -5.60414e-05 1.9086
0.38 0.02 -0.0166486 0.000658876 -6.25488e-05 2.08038
0.39 0.02 -0.0181795 0.000672103 -6.9219e-05 2.25255
0.4 0.02 -0.0197141 0.000678815 -7.59909e-05 2.42333
0.41 0.02 -0.0212358 0.000678216 -8.27953e-05 2.5908
0.42 0.02 -0.0227267 0.00066957 -8.95552e-05 2.75295
0.43 0.02 -0.0241681 0.000652222 -9.61867e-05 2.9077
0.44 0.02 -0.0255402 0.00062562 -0.0001026 3.05291
0.45 0.02 -0.0268228 0.000589345 -0.000108699 3.18645
0.46 0.02 -0.0279955 0.000543123 -0.000114387 3.30625
0.47 0.02 -0.0290381 0.000486857 -0.000119562 3.41026
0.48 0.02 -0.0299309 0.000420637 -0.000124124 3.49659
0.49 0.02 -0.0306551 0.000344768 -0.000127974 3.56348
0.5 0.02 -0.0311934 0.000259774 -0.000131019 3.60936
0.51 0.02 -0.03153 0.000166419 -0.00013317 3.63288
0.52 0.02 -0.0316516 6.57099e-05 -0.000134347 3.63296
0.53 0.02 -0.0315471 -4.11019e-05 -0.000134484 3.6088
0.54 0.02 -0.0312088 -0.000152525 -0.000133525 3.55992
0.55 0.02 -0.0306319 -0.000266841 -0.000131434 3.48619
0.56 0.02 -0.0298156 -0.000382125 -0.000128189 3.38782
0.57 0.02 -0.0287627 -0.00049628 -0.000123791 3.26542
0.58 0.02 -0.0274802 -0.000607078 -0.000118263 3.11993
0.59 0.02 -0.0259793 -0.000712211 -0.000111649 2.9527
0.6 0.02 -0.0242753 -0.00080936 -0.000104019 2.76543
0.61 0.02 -0.0223877 -0.00089626 -9.54623e-05 2.56018
0.62 0.02 -0.0203399 -0.000970783 -8.60935e-05 2.33932
0.63 0.02 -0.0181586 -0.00103102 -7.60466e-05 2.10551
0.64 0.02 -0.0158737 -0.00107536 -6.54731e-05 1.86167
0.65 0.02 -0.0135177 -0.00110258 -5.45393e-05 1.61091
0.66 0.02 -0.0111246 -0.00111189 -4.34215e-05 1.35647
0.67 0.02 -0.00872961 -0.00110299 -3.23016e-05 1.10169
0.68 0.02 -0.00636787 -0.00107612 -2.13618e-05 0.849909
0.69 0.02 -0.00407377 -0.00103206 -1.07792e-05 0.60441
0.7 0.02 -0.00187998 -0.000972105 -7.20504e-07 0.368337
0.71 0.02 0.000183456 -0.000898016 8.66294e-06 0.144633
0.72 0.02 0.00208988 -0.000811974 1.72398e-05 -0.0640371
0.73 0.02 0.00381676 -0.000716478 2.49024e-05 -0.255346
0.74 0.02 0.00534619 -0.000614237 3.15694e-05 -0.427359
0.75 0.02 0.00666532 -0.00050806 3.71872e-05 -0.578578
0.76 0.02 0.00776652 -0.000400737 4.17306e-05 -0.707971
0.77 0.02 0.00864734 -0.000294922 4.52019e-05 -0.814988
0.78 0.02 0.00931036 -0.000193035 4.7629e-05 -0.899556
0.79 0.02 0.00976276 -9.71773e-05 4.90626e-05 -0.962064
0.8 0.02 0.0100158 -9.065e-06 4.95726e-05 -1.00332
0.81 0.02 0.0100842 7.00061e-05 4.92439e-05 -1.02453
0.82 0.02 0.00998517 0.000139178 4.81725e-05 -1.02718
0.83 0.02 0.00973801 0.000198021 4.64604e-05 -1.01303
0.84 0.02 0.00936294 0.000246511 4.42121e-05 -0.984011
0.85 0.02 0.00888052 0.000284978 4.15302e-05 -0.942142
0.86 0.02 0.00831091 0.000314056 3.85125e-05 -0.889475
0.87 0.02 0.00767329 0.000334607 3.52491e-05 -0.828024
0.88 0.02 0.00698541 0.000347645 3.18204e-05 -0.75972
0.89 0.02 0.00626331 0.000354237 2.82962e-05 -0.686374
0.9 0.02 0.00552124 0.000355397 2.47356e-05 -0.609667
0.91 0.02 0.00477185 0.000351947 2.11883e-05 -0.531163
0.92 0.02 0.00402664 0.000344361 1.76967e-05 -0.452353
0.93 0.02 0.00329671 0.000332572 1.4301e-05 -0.374719
0.94 0.02 0.00259388 0.000315754 1.10453e-05 -0.299835
0.95 0.02 0.00193208 0.000292096 7.98596e-06 -0.229464
0.96 0.02 0.0013289 0.000258641 5.20335e-06 -0.165637
0.97 0.02 0.000806802 0.000211443 2.81315e-06 -0.110613
0.98 0.02 0.000393149 0.000146864 9.74477e-07 -0.0665409
0.99 0.02 0.000116553 6.65911e-05 -1.24128e-07 -0.0344471
1 0.02 -5.645e-06 -6.20638e-06 -3.57345e-07 -0.0119235
0 0.03 0 0 0.003387 0
0.01 0.03 0 0 0 -0.0123609
0.02 0.03 7.88529e-05 -0.000149178 4.12031e-07 -0.0271911
0.03 0.03 0.000348546 -0.000348016 2.98355e-06 -0.036492
0.04 0.03 0.000760494 -0.00049599 7.37235e-06 -0.0457065
0.05 0.03 0.00125967 -0.000577087 1.29033e-05 -0.0564032
0.06 0.03 0.00179273 -0.000597765 1.89141e-05 -0.0682105
0.07 0.03 0.00231359 -0.000570496 2.48586e-05 -0.0800016
0.08 0.03 0.00278552 -0.000508014 3.0324e-05 -0.0904885
0.09 0.03 0.00318123 -0.000421525 3.50189e-05 -0.0984799
0.1 0.03 0.0034819 -0.000320248 3.87545e-05 -0.102974
0.11 0.03 0.00367579 -0.000211373 4.14239e-05 -0.103174
0.12 0.03 0.00375672 -0.000100158 4.2982e-05 -0.0984718
0.13 0.03 0.00372247 9.92884e-06 4.34271e-05 -0.0884136
0.14 0.03 0.00357337 0.000117003 4.27834e-05 -0.0726662
0.15 0.03 0.00331097 0.000220526 4.1087e-05 -0.0509804
0.16 0.03 0.00293695 0.000321028 3.83729e-05 -0.0231587
0.17 0.03 0.00245231 0.00041981 3.46665e-05 0.0109705
0.18 0.03 0.00185678 0.000518643 2.99767e-05 0.0515729
0.19 0.03 0.00114855 0.000619484 2.42936e-05 0.0988205
0.2 0.03 0.000324176 0.000724227 1.75871e-05 0.152896
0.21 0.03 -0.000621186 0.000834505 9.80907e-06 0.213992
0.22 0.03 -0.0016935 0.000951557 8.96954e-07 0.282301
0.23 0.03 -0.00289941 0.00107614 -9.22206e-06 0.358004
0.24 0.03 -0.00424571 0.0012085 -2.06258e-05 0.441249
0.25 0.03 -0.00573889 0.00134838 -3.3392e-05 0.53214
0.26 0.03 -0.00738458 0.00149507 -4.75934e-05 0.630706
0.27 0.03 -0.00918716 0.0016474 -6.32933e-05 0.736886
0.28 0.03 -0.0111493 0.00180386 -8.05415e-05 0.850511
0.29 0.03 -0.0132716 0.00196253 -9.93704e-05 0.97128
0.3 0.03 -0.0155522 0.00212122 -0.000119792 1.09875
0.31 0.03 -0.0179866 0.00227742 -0.000141795 1.23234
0.32 0.03 -0.0205675 0.00242834 -0.000165341 1.37128
0.33 0.03 -0.0232843 0.00257097 -0.000190362 1.51468
0.34 0.03 -0.0261231 0.00270208 -0.00021676 1.66147
0.35 0.03 -0.0290669 0.00281832 -0.000244403 1.81043
0.36 0.03 -0.032095 0.00291622 -0.000273126 1.96025
0.37 0.03 -0.0351838 0.00299231 -0.000302728 2.10945
0.38 0.03 -0.0383062 0.00304315 -0.000332972 2.25651
0.39 0.03 -0.0414327 0.00306547 -0.000363591 2.39983
0.4 0.03 -0.0445309 0.00305621 -0.000394282 2.53777
0.41 0.03 -0.0475662 0.00301261 -0.000424715 2.6687
0.42 0.03 -0.0505025 0.00293232 -0.000454534 2.791
0.43 0.03 -0.0533025 0.00281346 -0.000483362 2.90314
0.44 0.03 -0.0559282 0.0026547 -0.000510803 3.00366
0.45 0.03 -0.0583416 0.00245534 -0.000536456 3.09122
0.46 0.03 -0.0605056 0.00221533 -0.00055991 3.16462
0.47 0.03 -0.0623841 0.0019354 -0.000580762 3.22284
0.48 0.03 -0.0639432 0.00161702 -0.000598618 3.26503
0.49 0.03 -0.0651514 0.00126248 -0.000613103 3.29052
0.5 0.03 -0.0659808 0.000874885 -0.000623868 3.29886
0.51 0.03 -0.0664072 0.000458175 -0.000630601 3.2898
0.52 0.03 -0.0664108 1.71065e-05 -0.000633031 3.26329
0.53 0.03 -0.0659772 -0.000442776 -0.000630943 3.21948
0.54 0.03 -0.0650971 -0.00091519 -0.000624176 3.15871
0.55 0.03 -0.0637676 -0.00139319 -0.000612639 3.08151
0.56 0.03 -0.0619919 -0.00186925 -0.000596312 2.98859
0.57 0.03 -0.0597798 -0.0023354 -0.000575254 2.88077
0.58 0.03 -0.0571479 -0.00278341 -0.000549604 2.75907
0.59 0.03 -0.0541196 -0.00320488 -0.000519586 2.62458
0.6 0.03 -0.050725 -0.00359155 -0.000485506 2.47853
0.61 0.03 -0.0470007 -0.00393545 -0.000447755 2.32223
0.62 0.03 -0.0429893 -0.00422919 -0.000406797 2.15709
0.63 0.03 -0.0387388 -0.00446617 -0.000363171 1.98456
0.64 0.03 -0.0343021 -0.00464088 -0.000317474 1.80618
0.65 0.03 -0.029736 -0.00474909 -0.000270353 1.62352
0.66 0.03 -0.0251 -0.00478806 -0.000222492 1.4382
0.67 0.03 -0.0204552 -0.00475674 -0.000174592 1.25188
0.68 0.03 -0.015863 -0.00465583 -0.000127357 1.06623
0.69 0.03 -0.011384 -0.00448789 -8.14753e-05 0.882936
0.7 0.03 -0.00707601 -0.00425722 -3.75995e-05 0.703695
0.71 0.03 -0.00299324 -0.00396985 3.66917e-06 0.530174
0.72 0.03 0.000815339 -0.0036333 4.17977e-05 0.364
0.73 0.03 0.00430705 -0.00325631 7.63352e-05 0.206733
0.74 0.03 0.00744657 -0.00284857 0.000106924 0.0598358
0.75 0.03 0.0102067 -0.00242033 0.000133307 -0.075362
0.76 0.03 0.0125688 -0.00198202 0.00015533 -0.197696
0.77 0.03 0.0145233 -0.00154384 0.000172947 -0.306201
0.78 0.03 0.0160692 -0.00111542 0.000186207 -0.400144
0.79 0.03 0.0172139 -0.000705444 0.000195255 -0.479045
0.8 0.03 0.0179725 -0.0003214 0.000200316 -0.542699
0.81 0.03 0.0183672 3.06421e-05 0.000201683 -0.591179
0.82 0.03 0.0184254 0.000346161 0.000199703 -0.624836
0.83 0.03 0.0181793 0.00062223 0.00019476 -0.64428
0.84 0.03 0.0176638 0.000857487 0.000187259 -0.650359
0.85 0.03 0.0169158 0.00105203 0.00017761 -0.644123
0.86 0.03 0.0159725 0.00120723 0.000166218 -0.626786
0.87 0.03 0.0148704 0.0013255 0.000153466 -0.599685
0.88 0.03 0.0136442 0.00140999 0.000139708 -0.564245
0.89 0.03 0.0123267 0.00146417 0.000125266 -0.521945
0.9 0.03 0.0109477 0.00149145 0.000110425 -0.4743
0.91 0.03 0.009535 0.0014946 9.5437e-05 -0.422858
0.92 0.03 0.00811433 0.00147515 8.05328e-05 -0.3692
0.93 0.03 0.00671098 0.00143276 6.59341e-05 -0.314955
0.94 0.03 0.00535122 0.00136462 5.18775e-05 -0.261806
0.95 0.03 0.0040643 0.00126498 3.86417e-05 -0.211468
0.96 0.03 0.00288435 0.00112528 2.6578e-05 -0.165594
0.97 0.03 0.00185146 0.00093575 1.6136e-05 -0.125522
0.98 0.03 0.00101062 0.000690248 7.86298e-06 -0.0917656
0.99 0.03 0.000406314 0.000398794 2.33107e-06 -0.0630383
1 0.03 7.00393e-05 0.000116553 -1.129e-07 -0.0346876
0 0.04 0 0 -0.0313032 0
0.01 0.04 0 0 0 -0.0444112
0.02 0.04 0.000124453 -0.000369249 1.48037e-06 -0.0477662
0.03 0.04 0.00049978 -0.000760558 7.38498e-06 -0.0459469
0.04 0.04 0.00104056 -0.00103477 1.66915e-05 -0.0425508
0.05 0.04 0.00167319 -0.00117967 2.80803e-05 -0.0392583
0.06 0.04 0.00233199 -0.00120769 4.0285e-05 -0.0364235
0.07 0.04 0.00296056 -0.00114019 5.22342e-05 -0.0336564
0.08 0.04 0.003513 -0.00100003 6.30889e-05 -0.0302164
0.09 0.04 0.00395406 -0.000808321 7.22349e-05 -0.0252375
0.1 0.04 0.0042583 -0.000583064 7.92553e-05 -0.0178479
0.11 0.04 0.00440875 -0.0003387 8.38962e-05 -0.00722708
0.12 0.04 0.00439518 -8.60327e-05 8.60293e-05 0.00736841
0.13 0.04 0.00421237 0.000167622 8.56168e-05 0.0265963
0.14 0.04 0.00385833 0.000418113 8.26769e-05 0.0510282
0.15 0.04 0.00333277 0.000664017 7.72546e-05 0.0811539
0.16 0.04 0.00263573 0.000906094 6.93966e-05 0.117387
0.17 0.04 0.00176657 0.0011467 5.91327e-05 0.160072
0.18 0.04 0.000723287 0.00138915 4.64627e-05 0.20949
0.19 0.04 -0.000497834 0.00163715 3.13498e-05 0.265861
0.2 0.04 -0.00190223 0.00189425 1.37197e-05 0.329351
0.21 0.04 -0.00349682 0.00216347 -6.53534e-06 0.400069
0.22 0.04 -0.0052895 0.00244693 -2.95497e-05 0.478066
0.23 0.04 -0.00728852 0.00274572 -5.5474e-05 0.563325
0.24 0.04 -0.00950184 0.00305981 -8.44642e-05 0.655758
0.25 0.04 -0.0119363 0.00338805 -0.00011667 0.755188
0.26 0.04 -0.0145971 0.00372824 -0.000152225 0.861338
0.27 0.04 -0.017487 0.00407721 -0.000191235 0.973816
0.28 0.04 -0.0206058 0.00443093 -0.00023377 1.0921
0.29 0.04 -0.0239499 0.00478458 -0.000279854 1.21554
0.3 0.04 -0.0275116 0.00513266 -0.000329461 1.34332
0.31 0.04 -0.0312793 0.00546906 -0.000382507 1.47451
0.32 0.04 -0.0352367 0.00578717 -0.000438842 1.60803
0.33 0.04 -0.0393631 0.00607998 -0.00049825 1.74269
0.34 0.04 -0.043633 0.00634019 -0.000560442 1.87717
0.35 0.04 -0.0480165 0.00656037 -0.000625054 2.01012
0.36 0.04 -0.0524792 0.00673312 -0.000691649 2.1401
0.37 0.04 -0.0569827 0.00685122 -0.000759717 2.26567
0.38 0.04 -0.0614851 0.00690785 -0.000828674 2.38542
0.39 0.04 -0.0659415 0.00689671 -0.000897874 2.49799
0.4 0.04 -0.0703043 0.00681226 -0.000966608 2.6021
0.41 0.04 -0.0745245 0.00664984 -0.00103412 2.69658
0.42 0.04 -0.078552 0.00640586 -0.00109961 2.78042
0.43 0.04 -0.0823365 0.00607788 -0.00116224 2.85276
0.44 0.04 -0.0858284 0.00566477 -0.00122116 2.91292
0.45 0.04 -0.0889797 0.00516678 -0.00127553 2.96041
0.46 0.04 -0.0917445 0.00458561 -0.0013245 2.99492
0.47 0.04 -0.0940799 0.00392443 -0.00136724 3.01633
0.48 0.04 -0.0959468 0.00318796 -0.00140299 3.02471
0.49 0.04 -0.0973105 0.00238241 -0.001431 3.02026
0.5 0.04 -0.0981413 0.0015155 -0.00145064 3.00335
0.51 0.04 -0.098415 0.000596415 -0.00146131 2.97448
0.52 0.04 -0.0981137 -0.000364305 -0.00146256 2.93421
0.53 0.04 -0.0972257 -0.00135481 -0.00145403 2.88322
0.54 0.04 -0.0957464 -0.00236208 -0.00143547 2.82221
0.55 0.04 -0.0936782 -0.00337208 -0.00140679 2.75193
0.56 0.04 -0.0910311 -0.00436997 -0.00136803 2.67313
0.57 0.04 -0.0878223 -0.00534029 -0.00131939 2.58656
0.58 0.04 -0.0840769 -0.00626725 -0.00126122 2.49292
0.59 0.04 -0.0798272 -0.00713506 -0.00119404 2.3929
0.6 0.04 -0.075113 -0.00792825 -0.00111852 2.28714
0.61 0.04 -0.069981 -0.00863202 -0.00103548 2.17622
0.62 0.04 -0.0644846 -0.0092327 -0.000945879 2.0607
0.63 0.04 -0.0586831 -0.00971814 -0.000850822 1.9411
0.64 0.04 -0.0526412 -0.0100781 -0.000751516 1.8179
0.65 0.04 -0.0464277 -0.0103047 -0.00064926 1.69159
0.66 0.04 -0.0401151 -0.0103927 -0.000545421 1.56265
0.67 0.04 -0.0337776 -0.0103399 -0.000441405 1.43159
0.68 0.04 -0.0274905 -0.0101473 -0.000338622 1.29899
0.69 0.04 -0.0213284 -0.00981908 -0.000238459 1.16546
0.7 0.04 -0.0153636 -0.00936285 -0.000142241 1.03169
0.71 0.04 -0.00966498 -0.00878936 -5.12017e-05 0.898486
0.72 0.04 -0.0042961 -0.00811225 3.35467e-05 0.766717
0.73 0.04 0.000686032 -0.0073477 0.000111044 0.637357
0.74 0.04 0.00523229 -0.00651387 0.000180501 0.511455
0.75 0.04 0.00930252 -0.00563033 0.000241321 0.390123
0.76 0.04 0.0128665 -0.00471735 0.000293107 0.274507
0.77 0.04 0.0159042 -0.00379524 0.000335668 0.165751
0.78 0.04 0.0184066 -0.00288357 0.000369012 0.0649601
0.79 0.04 0.0203748 -0.00200055 0.00039334 -0.0268431
0.8 0.04 0.0218205 -0.0011624 0.000409024 -0.108763
0.81 0.04 0.0227644 -0.000382881 0.000416588 -0.18007
0.82 0.04 0.0232354 0.000327093 0.000416681 -0.240237
0.83 0.04 0.0232695 0.000959636 0.000410046 -0.288962
0.84 0.04 0.0229081 0.00150997 0.000397488 -0.326188
0.85 0.04 0.0221963 0.00197629 0.000379847 -0.352108
0.86 0.04 0.0211814 0.00235952 0.000357963 -0.36716
0.87 0.04 0.0199114 0.00266289 0.000332656 -0.372015
0.88 0.04 0.0184337 0.00289133 0.000304705 -0.367562
0.89 0.04 0.016794 0.00305074 0.00027483 -0.354889
0.9 0.04 0.015036 0.00314708 0.00024369 -0.335262
0.91 0.04 0.0132008 0.00318535 0.000211888 -0.310107
0.92 0.04 0.0113279 0.00316838 0.000179983 -0.280993
0.93 0.04 0.00945604 0.00309568 0.000148521 -0.249594
0.94 0.04 0.00762473 0.00296244 0.00011807 -0.217635
0.95 0.04 0.00587615 0.00275897 8.9272e-05 -0.186785
0.96 0.04 0.00425688 0.00247149 6.28903e-05 -0.158467
0.97 0.04 0.0028187 0.00208517 3.98423e-05 -0.133541
0.98 0.04 0.00161787 0.00159201 2.11869e-05 -0.111801
0.99 0.04 0.000712056 0.00100717 8.00215e-06 -0.09125
1 0.04 0.000155794 0.000400107 1.04344e-06 -0.0671847
0 0.05 0 0 -0.0900895 0
0.01 0.05 0 0 0 -0.0870329
0.02 0.05 0.00015038 -0.000648957 2.9011e-06 -0.0734311
0.03 0.05 0.000587539 -0.00126412 1.29792e-05 -0.0568881
0.04 0.05 0.0011967 -0.0016694 2.81836e-05 -0.03929
0.05 0.05 0.00188756 -0.00186851 4.63671e-05 -0.0218086
0.06 0.05 0.00258486 -0.00188514 6.55539e-05 -0.00488578
0.07 0.05 0.00322573 -0.00175151 8.40698e-05 0.0115854
0.08 0.05 0.00375907 -0.00150151 0.000100584 0.028072
0.09 0.05 0.00414502 -0.00116682 0.0001141 0.0452577
0.1 0.05 0.00435391 -0.000774933 0.000123921 0.0639438
0.11 0.05 0.00436493 -0.00034825 0.000129599 0.0849826
0.12 0.05 0.00416437 9.62222e-05 0.000130886 0.10923
0.13 0.05 0.00374386 0.000546777 0.000127674 0.137511
0.14 0.05 0.00309853 0.0009966 0.00011995 0.17059
0.15 0.05 0.0022254 0.00144313 0.000107742 0.20915
0.16 0.05 0.00112195 0.00188723 9.10875e-05 0.253776
0.17 0.05 -0.000214905 0.00233225 6.99978e-05 0.304941
0.18 0.05 -0.0017895 0.00278305 4.44425e-05 0.362999
0.19 0.05 -0.00360774 0.00324501 1.43369e-05 0.428181
0.2 0.05 -0.00567695 0.00372322 -2.04576e-05 0.500595
0.21 0.05 -0.00800557 0.00422177 -6.01274e-05 0.58023
0.22 0.05 -0.0106024 0.00474326 -0.000104893 0.666956
0.23 0.05 -0.013476 0.00528847 -0.000154993 0.760524
0.24 0.05 -0.0166334 0.00585629 -0.000210663 0.86057
0.25 0.05 -0.0200798 0.00644368 -0.000272118 0.966608
0.26 0.05 -0.0238172 0.00704578 -0.000339536 1.07803
0.27 0.05 -0.027844 0.00765609 -0.000413034 1.19408
0.28 0.05 -0.0321541 0.00826667 -0.000492658 1.31391
0.29 0.05 -0.0367365 0.00886829 -0.000578368 1.43649
0.3 0.05 -0.0415748 0.00945064 -0.000670024 1.56071
0.31 0.05 -0.0466472 0.0100025 -0.000767381 1.68535
0.32 0.05 -0.0519259 0.0105122 -0.000870075 1.80908
0.33 0.05 -0.0573777 0.0109673 -0.000977624 1.93054
0.34 0.05 -0.0629638 0.0113555 -0.00108942 2.04835
0.35 0.05 -0.0686405 0.0116645 -0.00120473 2.16115
0.36 0.05 -0.0743595 0.0118824 -0.00132271 2.26764
0.37 0.05 -0.0800686 0.0119983 -0.00144238 2.36662
0.38 0.05 -0.0857127 0.0120019 -0.00156268 2.45702
0.39 0.05 -0.0912343 0.0118846 -0.00168242 2.53794
0.4 0.05 -0.0965748 0.0116392 -0.00180037 2.60866
0.41 0.05 -0.101675 0.0112603 -0.00191521 2.66866
0.42 0.05 -0.106478 0.0107443 -0.00202557 2.71765
0.43 0.05 -0.110925 0.0100899 -0.00213009 2.75552
0.44 0.05 -0.114963 0.00929796 -0.00222737 2.78239
0.45 0.05 -0.118541 0.00837141 -0.00231605 2.79853
0.46 0.05 -0.121612 0.0073155 -0.0023948 2.80439
0.47 0.05 -0.124133 0.0061377 -0.00246236 2.80056
0.48 0.05 -0.126067 0.0048476 -0.00251755 2.78771
0.49 0.05 -0.127383 0.00345693 -0.00255931 2.76661
0.5 0.05 -0.128055 0.00197939 -0.00258669 2.73804
0.51 0.05 -0.128063 0.000430556 -0.0025989 2.70282
0.52 0.05 -0.127395 -0.00117224 -0.0025953 2.66173
0.53 0.05 -0.126046 -0.00281008 -0.00257546 2.61551
0.54 0.05 -0.124015 -0.00446266 -0.0025391 2.56484
0.55 0.05 -0.121312 -0.00610847 -0.0024862 2.51032
0.56 0.05 -0.117951 -0.00772513 -0.00241693 2.45245
0.57 0.05 -0.113956 -0.00928958 -0.0023317 2.3916
0.58 0.05 -0.109355 -0.0107785 -0.00223114 2.32807
0.59 0.05 -0.104187 -0.0121688 -0.00211613 2.26204
0.6 0.05 -0.0984939 -0.0134378 -0.00198777 2.19357
0.61 0.05 -0.0923278 -0.0145638 -0.00184737 2.12266
0.62 0.05 -0.0857455 -0.0155271 -0.00169649 2.0492
0.63 0.05 -0.0788103 -0.0163096 -0.00153683 1.97304
0.64 0.05 -0.0715907 -0.0168963 -0.0013703 1.89399
0.65 0.05 -0.0641602 -0.0172752 -0.00119891 1.81183
0.66 0.05 -0.0565958 -0.0174382 -0.00102479 1.72637
0.67 0.05 -0.0489775 -0.0173813 -0.000850144 1.63746
0.68 0.05 -0.0413868 -0.017105 -0.000677167 1.54498
0.69 0.05 -0.0339053 -0.0166148 -0.000508043 1.44893
0.7 0.05 -0.0266136 -0.0159206 -0.000344871 1.34941
0.71 0.05 -0.0195895 -0.0150374 -0.00018963 1.24668
0.72 0.05 -0.0129063 -0.0139843 -4.41241e-05 1.14111
0.73 0.05 -0.00663182 -0.0127847 9.0056e-05 1.03328
0.74 0.05 -0.000826252 -0.0114651 0.00021157 0.923893
0.75 0.05 0.00445868 -0.0100545 0.000319357 0.813838
0.76 0.05 0.00918108 -0.00858369 0.00041266 0.704142
0.77 0.05 0.0133097 -0.00708393 0.000491031 0.595954
0.78 0.05 0.0168247 -0.00558605 0.000554338 0.49051
0.79 0.05 0.0197178 -0.0041194 0.000602752 0.389093
0.8 0.05 0.0219919 -0.00271092 0.000636727 0.292985
0.81 0.05 0.0236614 -0.00138422 0.000656971 0.203411
0.82 0.05 0.0247506 -0.000159001 0.000664411 0.121489
0.83 0.05 0.025293 0.000949503 0.000660151 0.0481792
0.84 0.05 0.0253299 0.00193073 0.000645421 -0.0157657
0.85 0.05 0.0249084 0.00277877 0.000621536 -0.069834
0.86 0.05 0.0240803 0.00349214 0.000589846 -0.113786
0.87 0.05 0.0229 0.0040732 0.000551694 -0.147674
0.88 0.05 0.0214231 0.00452733 0.000508382 -0.17185
0.89 0.05 0.0197049 0.00486187 0.000461147 -0.186967
0.9 0.05 0.0177998 0.0050847 0.000411145 -0.193973
0.91 0.05 0.0157604 0.00520268 0.000359453 -0.194091
0.92 0.05 0.0136384 0.0052199 0.000307091 -0.188786
0.93 0.05 0.0114843 0.00513595 0.000255055 -0.179704
0.94 0.05 0.00934936 0.00494451 0.000204372 -0.16858
0.95 0.05 0.00728677 0.00463282 0.000156165 -0.15708
0.96 0.05 0.00535326 0.00418274 0.000111716 -0.14658
0.97 0.05 0.0036102 0.00357476 7.251e-05 -0.137846
0.98 0.05 0.00212435 0.00279689 4.02204e-05 -0.130616
0.99 0.05 0.00096865 0.00186087 1.65722e-05 -0.123119
1 0.05 0.00022567 0.000828609 3.00298e-06 -0.111605
0 0.06 0 0 -0.166705 0
0.01 0.06 0 0 0 -0.134639
0.02 0.06 0.000159894 -0.000956788 4.48797e-06 -0.101839
0.03 0.06 0.000616764 -0.00180688 1.91358e-05 -0.0686405
0.04 0.06 0.00123719 -0.00233479 4.06256e-05 -0.0357595
0.05 0.06 0.00191825 -0.00256783 6.58316e-05 -0.00380686
0.06 0.06 0.00257735 -0.00254586 9.19822e-05 0.0269379
0.07 0.06 0.00314737 -0.00231441 0.000116749 0.0565534
0.08 0.06 0.00357434 -0.00191933 0.00013827 0.0854261
0.09 0.06 0.00381593 -0.00140316 0.000155135 0.114183
0.1 0.06 0.00384006 -0.000802972 0.000166334 0.143622
0.11 0.06 0.00362328 -0.000149158 0.000171195 0.174655
0.12 0.06 0.00314912 0.000535037 0.000169317 0.208249
0.13 0.06 0.00240628 0.00123346 0.000160494 0.245374
0.14 0.06 0.0013869 0.00193658 0.000144648 0.286956
0.15 0.06 8.49623e-05 0.0026406 0.000121763 0.33383
0.16 0.06 -0.00150502 0.0033464 9.18356e-05 0.386705
0.17 0.06 -0.00338895 0.00405815 5.48346e-05 0.446136
0.18 0.06 -0.0055737 0.00478198 1.06726e-05 0.512498
0.19 0.06 -0.00806725 0.0055246 -4.0805e-05 0.58598
0.2 0.06 -0.0108784 0.00629209 -9.98193e-05 0.666581
0.21 0.06 -0.0140163 0.00708893 -0.000166647 0.754116
0.22 0.06 -0.0174894 0.00791732 -0.000241598 0.848225
0.23 0.06 -0.0213048 0.00877669 -0.000324993 0.948382
0.24 0.06 -0.0254667 0.00966364 -0.000417132 1.05391
0.25 0.06 -0.0299762 0.0105719 -0.000518266 1.16399
0.26 0.06 -0.0348295 0.0114925 -0.000628569 1.27765
0.27 0.06 -0.0400177 0.0124141 -0.000748115 1.39383
0.28 0.06 -0.0455261 0.0133234 -0.000876852 1.5113
0.29 0.06 -0.0513335 0.0142053 -0.00101458 1.6288
0.3 0.06 -0.0574123 0.0150434 -0.00116096 1.74495
0.31 0.06 -0.063728 0.0158201 -0.00131545 1.85836
0.32 0.06 -0.07024 0.0165177 -0.00147736 1.96763
0.33 0.06 -0.0769016 0.0171179 -0.0016458 2.07142
0.34 0.06 -0.0836606 0.017603 -0.00181972 2.16847
0.35 0.06 -0.0904601 0.017956 -0.00199787 2.25767
0.36 0.06 -0.0972396 0.0181612 -0.00217884 2.33807
0.37 0.06 -0.103936 0.0182044 -0.00236109 2.40893
0.38 0.06 -0.110484 0.0180735 -0.00254293 2.46975
0.39 0.06 -0.116819 0.0177589 -0.00272256 2.52024
0.4 0.06 -0.122877 0.0172533 -0.00289811 2.56038
0.41 0.06 -0.128594 0.0165526 -0.00306763 2.59038
0.42 0.06 -0.133909 0.0156554 -0.00322916 2.61063
0.43 0.06 -0.138768 0.0145633 -0.00338074 2.62174
0.44 0.06 -0.143116 0.0132808 -0.00352042 2.62445
0.45 0.06 -0.146905 0.0118154 -0.00364635 2.61963
0.46 0.06 -0.150095 0.0101774 -0.00375673 2.60819
0.47 0.06 -0.152646 0.00837984 -0.0038499 2.59111
0.48 0.06 -0.154529 0.00643807 -0.00392433 2.56934
0.49 0.06 -0.155717 0.00436997 -0.00397866 2.54382
0.5 0.06 -0.156192 0.00219561 -0.00401173 2.5154
0.51 0.06 -0.155939 -6.29176e-05 -0.00402257 2.48484
0.52 0.06 -0.154952 -0.00238167 -0.00401047 2.4528
0.53 0.06 -0.15323 -0.00473503 -0.00397494 2.41982
0.54 0.06 -0.150777 -0.00709592 -0.00391577 2.38628
0.55 0.06 -0.147605 -0.00943603 -0.00383302 2.35245
0.56 0.06 -0.143733 -0.0117261 -0.00372705 2.31844
0.57 0.06 -0.139182 -0.0139362 -0.0035985 2.28423
0.58 0.06 -0.133985 -0.0160363 -0.00344832 2.24968
0.59 0.06 -0.128178 -0.0179963 -0.00327777 2.21453
0.6 0.06 -0.121805 -0.0197871 -0.0030884 2.17841
0.61 0.06 -0.114914 -0.0213804 -0.00288203 2.14087
0.62 0.06 -0.107563 -0.0227502 -0.00266079 2.10138
0.63 0.06 -0.0998132 -0.023873 -0.00242703 2.05939
0.64 0.06 -0.0917332 -0.0247282 -0.00218333 2.01429
0.65 0.06 -0.0833959 -0.0252996 -0.00193246 1.96549
0.66 0.06 -0.0748792 -0.0255754 -0.00167734 1.91241
0.67 0.06 -0.0662645 -0.025549 -0.00142095 1.85454
0.68 0.06 -0.0576359 -0.0252195 -0.00116636 1.79143
0.69 0.06 -0.0490788 -0.0245922 -0.000916565 1.72272
0.7 0.06 -0.0406786 -0.0236787 -0.000674513 1.64819
0.71 0.06 -0.0325194 -0.0224966 -0.000442991 1.56778
0.72 0.06 -0.0246822 -0.0210699 -0.00022458 1.48157
0.73 0.06 -0.0172432 -0.0194278 -2.15927e-05 1.38985