Title=" Lid Driven Flow"
VARIABLES="time","err1","err2"
ZONE T= "BOX", I= 101, J=101, F=POINT
0 0 -33.3333
0.02 -0.00111111 -32.1491
0.04 -0.00135661 -27.5784
0.06 -0.00133386 -21.1599
0.08 -0.00114475 -13.6515
0.1 -0.00084387 -6.41669
0.12 -0.000504192 -0.784683
0.14 -0.000203316 2.62307
0.16 7.79432e-06 3.98067
0.18 0.000118461 3.88867
0.2 0.000147919 3.01861
0.22 0.000127065 1.92481
0.24 8.48742e-05 0.968418
0.26 4.1897e-05 0.313119
0.28 9.03657e-06 -0.0305076
0.3 -1.06735e-05 -0.138471
0.32 -1.90771e-05 -0.111026
0.34 -1.99849e-05 -0.0319617
0.36 -1.71257e-05 0.0468334
0.38 -1.31659e-05 0.102814
0.4 -9.5642e-06 0.132641
0.42 -6.85929e-06 0.14202
0.44 -5.05878e-06 0.138791
0.46 -3.95079e-06 0.12951
0.48 -3.2902e-06 0.118455
0.5 -2.88087e-06 0.107869
0.52 -2.59446e-06 0.0986133
0.54 -2.36013e-06 0.090777
0.56 -2.14602e-06 0.0841185
0.58 -1.94239e-06 0.078323
0.6 -1.74953e-06 0.0731249
0.62 -1.57055e-06 0.0683451
0.64 -1.40793e-06 0.063883
0.66 -1.26242e-06 0.0596924
0.68 -1.1333e-06 0.055756
0.7 -1.01893e-06 0.0520672
0.72 -9.17396e-07 0.0486199
0.74 -8.2691e-07 0.0454048
0.76 -7.45953e-07 0.0424091
0.78 -6.73322e-07 0.0396177
0.8 -6.08071e-07 0.0370151
0.82 -5.49439e-07 0.0345864
0.84 -4.96779e-07 0.0323179
0.86 -4.4952e-07 0.0301973
0.88 -4.07138e-07 0.0282138
0.9 -3.69146e-07 0.0263574
0.92 -3.35096e-07 0.0246192
0.94 -3.04574e-07 0.0229911
0.96 -2.77206e-07 0.0214654
0.98 -2.52655e-07 0.020035
1 -2.30621e-07 0.0186934
1.02 -2.10835e-07 0.0174344
1.04 -1.9306e-07 0.0162524
1.06 -1.77086e-07 0.0151421
1.08 -1.62724e-07 0.0140987
1.1 -1.4981e-07 0.0131175
1.12 -1.38195e-07 0.0121945
1.14 -1.27748e-07 0.0113257
1.16 -1.18352e-07 0.0105075
1.18 -1.09902e-07 0.00973664
1.2 -1.02306e-07 0.00900999
1.22 -9.54802e-08 0.00832467
1.24 -8.93515e-08 0.00767804
1.26 -8.38532e-08 0.00706761
1.28 -7.89259e-08 0.00649111
1.3 -7.45162e-08 0.0059464
1.32 -7.05763e-08 0.00543151
1.34 -6.70629e-08 0.0049446
1.36 -6.39372e-08 0.00448398
1.38 -6.11641e-08 0.00404806
1.4 -5.87116e-08 0.00363537
1.42 -5.65512e-08 0.00324453
1.44 -5.46567e-08 0.00287426
1.46 -5.30045e-08 0.00252338
1.48 -5.15732e-08 0.00219076
1.5 -5.03431e-08 0.00187537
1.52 -4.92965e-08 0.00157624
1.54 -4.84173e-08 0.00129247
1.56 -4.76907e-08 0.00102319
1.58 -4.71031e-08 0.000767627
1.6 -4.66424e-08 0.000525024
1.62 -4.62973e-08 0.000294686
1.64 -4.60574e-08 7.59565e-05
1.66 -4.59134e-08 -0.000131778
1.68 -4.58566e-08 -0.000329094
1.7 -4.58791e-08 -0.000516535
1.72 -4.59737e-08 -0.00069461
1.74 -4.61337e-08 -0.0008638
1.76 -4.63529e-08 -0.00102456
1.78 -4.66258e-08 -0.0011773
1.8 -4.69471e-08 -0.00132244
1.82 -4.73122e-08 -0.00146036
1.84 -4.77166e-08 -0.00159139
1.86 -4.81563e-08 -0.0017159
1.88 -4.86276e-08 -0.00183418
1.9 -4.91271e-08 -0.00194655
1.92 -4.96516e-08 -0.00205328
1.94 -5.01983e-08 -0.00215464
1.96 -5.07644e-08 -0.0022509
1.98 -5.13476e-08 -0.00234229
2 -5.19456e-08 -0.00242903
2.02 -5.25562e-08 -0.00251135
2.04 -5.31775e-08 -0.00258944
2.06 -5.38079e-08 -0.00266351
2.08 -5.44456e-08 -0.00273374
2.1 -5.50892e-08 -0.00280029
2.12 -5.57372e-08 -0.00286335
2.14 -5.63885e-08 -0.00292306
2.16 -5.70418e-08 -0.00297958
2.18 -5.76961e-08 -0.00303304
2.2 -5.83504e-08 -0.00308359
2.22 -5.90038e-08 -0.00313136
2.24 -5.96555e-08 -0.00317646
2.26 -6.03047e-08 -0.00321901
2.28 -6.09507e-08 -0.00325912
2.3 -6.15929e-08 -0.00329691
2.32 -6.22307e-08 -0.00333246
2.34 -6.28637e-08 -0.00336589
2.36 -6.34912e-08 -0.00339727
2.38 -6.4113e-08 -0.0034267
2.4 -6.47286e-08 -0.00345426
2.42 -6.53376e-08 -0.00348003
2.44 -6.59398e-08 -0.00350409
2.46 -6.65349e-08 -0.00352651
2.48 -6.71225e-08 -0.00354735
2.5 -6.77026e-08 -0.00356669
2.52 -6.82748e-08 -0.00358459
2.54 -6.88391e-08 -0.00360111
2.56 -6.93952e-08 -0.00361631
2.58 -6.99431e-08 -0.00363023
2.6 -7.04826e-08 -0.00364294
2.62 -7.10136e-08 -0.00365449
2.64 -7.1536e-08 -0.00366492
2.66 -7.20499e-08 -0.00367429
2.68 -7.2555e-08 -0.00368263
2.7 -7.30515e-08 -0.00368998
2.72 -7.35392e-08 -0.0036964
2.74 -7.40182e-08 -0.00370191
2.76 -7.44884e-08 -0.00370655
2.78 -7.49498e-08 -0.00371037
2.8 -7.54025e-08 -0.00371339
2.82 -7.58464e-08 -0.00371565
2.84 -7.62817e-08 -0.00371717
2.86 -7.67082e-08 -0.003718
2.88 -7.71261e-08 -0.00371815
2.9 -7.75353e-08 -0.00371766
2.92 -7.7936e-08 -0.00371655
2.94 -7.83281e-08 -0.00371485
2.96 -7.87118e-08 -0.00371258
2.98 -7.9087e-08 -0.00370977
3 -7.94538e-08 -0.00370643
3.02 -7.98123e-08 -0.00370259
3.04 -8.01625e-08 -0.00369828
3.06 -8.05046e-08 -0.0036935
3.08 -8.08385e-08 -0.00368829
3.1 -8.11643e-08 -0.00368265
3.12 -8.14821e-08 -0.00367661
3.14 -8.17919e-08 -0.00367018
3.16 -8.20939e-08 -0.00366338
3.18 -8.23881e-08 -0.00365623
3.2 -8.26746e-08 -0.00364873
3.22 -8.29534e-08 -0.00364091
3.24 -8.32246e-08 -0.00363279
3.26 -8.34884e-08 -0.00362436
3.28 -8.37447e-08 -0.00361565
3.3 -8.39937e-08 -0.00360667
3.32 -8.42354e-08 -0.00359743
3.34 -8.44701e-08 -0.00358795
3.36 -8.46976e-08 -0.00357823
3.38 -8.49182e-08 -0.00356828
3.4 -8.51319e-08 -0.00355813
3.42 -8.53388e-08 -0.00354777
3.44 -8.55391e-08 -0.00353721
3.46 -8.57328e-08 -0.00352648
3.48 -8.59201e-08 -0.00351557
3.5 -8.61011e-08 -0.0035045
3.52 -8.62758e-08 -0.00349327
3.54 -8.64445e-08 -0.0034819
3.56 -8.66072e-08 -0.00347039
3.58 -8.67641e-08 -0.00345875
3.6 -8.69153e-08 -0.00344699
3.62 -8.7061e-08 -0.00343511
3.64 -8.72013e-08 -0.00342313
3.66 -8.73364e-08 -0.00341106
3.68 -8.74664e-08 -0.00339889
3.7 -8.75915e-08 -0.00338664
3.72 -8.77119e-08 -0.00337431
3.74 -8.78277e-08 -0.00336191
3.76 -8.79391e-08 -0.00334945
3.78 -8.80464e-08 -0.00333693
3.8 -8.81497e-08 -0.00332436
3.82 -8.82492e-08 -0.00331174
3.84 -8.8345e-08 -0.00329908
3.86 -8.84375e-08 -0.0032864
3.88 -8.85269e-08 -0.00327368
3.9 -8.86133e-08 -0.00326094
3.92 -8.86969e-08 -0.00324818
3.94 -8.87781e-08 -0.00323541
3.96 -8.88569e-08 -0.00322264
3.98 -8.89338e-08 -0.00320986
4 -8.90088e-08 -0.00319708
4.02 -8.90823e-08 -0.0031843
4.04 -8.91544e-08 -0.00317154
4.06 -8.92254e-08 -0.00315879
4.08 -8.92957e-08 -0.00314605
4.1 -8.93653e-08 -0.00313334
4.12 -8.94346e-08 -0.00312065
4.14 -8.95038e-08 -0.00310799
4.16 -8.95731e-08 -0.00309536
4.18 -8.96428e-08 -0.00308276
4.2 -8.97132e-08 -0.0030702
4.22 -8.97845e-08 -0.00305768
4.24 -8.98569e-08 -0.0030452
4.26 -8.99307e-08 -0.00303276
4.28 -9.00061e-08 -0.00302036
4.3 -9.00833e-08 -0.00300801
4.32 -9.01626e-08 -0.00299571
4.34 -9.02442e-08 -0.00298346
4.36 -9.03283e-08 -0.00297125
4.38 -9.04151e-08 -0.0029591
4.4 -9.05049e-08 -0.002947
4.42 -9.05977e-08 -0.00293495
4.44 -9.06939e-08 -0.00292296
4.46 -9.07935e-08 -0.00291101
4.48 -9.08969e-08 -0.00289912
4.5 -9.10041e-08 -0.00288728
4.52 -9.11152e-08 -0.0028755
4.54 -9.12306e-08 -0.00286376
4.56 -9.13502e-08 -0.00285208
4.58 -9.14742e-08 -0.00284045
4.6 -9.16027e-08 -0.00282887
4.62 -9.17359e-08 -0.00281733
4.64 -9.18737e-08 -0.00280585
4.66 -9.20165e-08 -0.0027944
4.68 -9.2164e-08 -0.00278301
4.7 -9.23166e-08 -0.00277165
4.72 -9.24741e-08 -0.00276034
4.74 -9.26366e-08 -0.00274906
4.76 -9.28042e-08 -0.00273782
4.78 -9.29769e-08 -0.00272662
4.8 -9.31546e-08 -0.00271545
4.82 -9.33374e-08 -0.00270431
4.84 -9.35252e-08 -0.0026932
4.86 -9.3718e-08 -0.00268212
4.88 -9.39157e-08 -0.00267106
4.9 -9.41183e-08 -0.00266002
4.92 -9.43257e-08 -0.002649
4.94 -9.45378e-08 -0.002638
4.96 -9.47545e-08 -0.00262701
4.98 -9.49757e-08 -0.00261603
5 -9.52013e-08 -0.00260506
5.02 -9.54312e-08 -0.0025941
5.04 -9.56652e-08 -0.00258314
5.06 -9.59031e-08 -0.00257219
5.08 -9.61449e-08 -0.00256123
5.1 -9.63902e-08 -0.00255027
5.12 -9.6639e-08 -0.0025393
5.14 -9.68911e-08 -0.00252833
5.16 -9.71462e-08 -0.00251734
5.18 -9.74041e-08 -0.00250634
5.2 -9.76647e-08 -0.00249533
5.22 -9.79278e-08 -0.0024843
5.24 -9.81929e-08 -0.00247325
5.26 -9.84601e-08 -0.00246217
5.28 -9.87289e-08 -0.00245108
5.3 -9.89992e-08 -0.00243996
5.32 -9.92707e-08 -0.00242881
5.34 -9.95432e-08 -0.00241763
5.36 -9.98164e-08 -0.00240642
5.38 -1.0009e-07 -0.00239518
5.4 -1.00364e-07 -0.00238391
5.42 -1.00637e-07 -0.0023726
5.44 -1.00911e-07 -0.00236126
5.46 -1.01183e-07 -0.00234988
5.48 -1.01455e-07 -0.00233846
5.5 -1.01726e-07 -0.002327
5.52 -1.01995e-07 -0.0023155
5.54 -1.02262e-07 -0.00230396
5.56 -1.02528e-07 -0.00229238
5.58 -1.02791e-07 -0.00228076
5.6 -1.03051e-07 -0.0022691
5.62 -1.03309e-07 -0.00225739
5.64 -1.03564e-07 -0.00224564
5.66 -1.03815e-07 -0.00223385
5.68 -1.04063e-07 -0.00222202
5.7 -1.04307e-07 -0.00221015
5.72 -1.04547e-07 -0.00219823
5.74 -1.04782e-07 -0.00218628
5.76 -1.05013e-07 -0.00217428
5.78 -1.0524e-07 -0.00216224
5.8 -1.05461e-07 -0.00215016
5.82 -1.05677e-07 -0.00213804
5.84 -1.05887e-07 -0.00212589
5.86 -1.06092e-07 -0.0021137
5.88 -1.06291e-07 -0.00210147
5.9 -1.06484e-07 -0.00208921
5.92 -1.06671e-07 -0.00207691
5.94 -1.06851e-07 -0.00206458
5.96 -1.07025e-07 -0.00205222
5.98 -1.07191e-07 -0.00203983
6 -1.07351e-07 -0.00202742
6.02 -1.07504e-07 -0.00201497
6.04 -1.0765e-07 -0.0020025
6.06 -1.07788e-07 -0.00199001
6.08 -1.07918e-07 -0.0019775
6.1 -1.08042e-07 -0.00196496
6.12 -1.08157e-07 -0.00195241
6.14 -1.08264e-07 -0.00193984
6.16 -1.08364e-07 -0.00192726
6.18 -1.08455e-07 -0.00191467
6.2 -1.08539e-07 -0.00190206
6.22 -1.08614e-07 -0.00188945
6.24 -1.08681e-07 -0.00187683
6.26 -1.0874e-07 -0.00186421
6.28 -1.0879e-07 -0.00185158
6.3 -1.08832e-07 -0.00183895
6.32 -1.08866e-07 -0.00182633
6.34 -1.08891e-07 -0.00181371
6.36 -1.08908e-07 -0.00180109
6.38 -1.08916e-07 -0.00178849
6.4 -1.08916e-07 -0.00177589
6.42 -1.08907e-07 -0.00176331
6.44 -1.0889e-07 -0.00175074
6.46 -1.08864e-07 -0.00173819
6.48 -1.0883e-07 -0.00172565
6.5 -1.08787e-07 -0.00171314
6.52 -1.08737e-07 -0.00170065
6.54 -1.08677e-07 -0.00168818
6.56 -1.0861e-07 -0.00167574
6.58 -1.08534e-07 -0.00166333
6.6 -1.08451e-07 -0.00165095
6.62 -1.08359e-07 -0.00163861
6.64 -1.08259e-07 -0.00162629
6.66 -1.08151e-07 -0.00161402
6.68 -1.08035e-07 -0.00160178
6.7 -1.07912e-07 -0.00158958
6.72 -1.07781e-07 -0.00157742
6.74 -1.07642e-07 -0.00156531
6.76 -1.07496e-07 -0.00155324
6.78 -1.07342e-07 -0.00154122
6.8 -1.07181e-07 -0.00152925
6.82 -1.07013e-07 -0.00151733
6.84 -1.06838e-07 -0.00150546
6.86 -1.06656e-07 -0.00149364
6.88 -1.06467e-07 -0.00148188
6.9 -1.06272e-07 -0.00147017
6.92 -1.06069e-07 -0.00145852
6.94 -1.05861e-07 -0.00144693
6.96 -1.05646e-07 -0.0014354
6.98 -1.05425e-07 -0.00142393
7 -1.05197e-07 -0.00141252
7.02 -1.04964e-07 -0.00140118
7.04 -1.04725e-07 -0.0013899
7.06 -1.0448e-07 -0.00137869
7.08 -1.0423e-07 -0.00136754
7.1 -1.03975e-07 -0.00135646
7.12 -1.03714e-07 -0.00134545
7.14 -1.03448e-07 -0.00133451
7.16 -1.03177e-07 -0.00132364
7.18 -1.02902e-07 -0.00131284
7.2 -1.02621e-07 -0.00130212
7.22 -1.02336e-07 -0.00129146
7.24 -1.02047e-07 -0.00128088
7.26 -1.01754e-07 -0.00127037
7.28 -1.01456e-07 -0.00125993
7.3 -1.01154e-07 -0.00124958
7.32 -1.00849e-07 -0.00123929
7.34 -1.0054e-07 -0.00122908
7.36 -1.00227e-07 -0.00121895
7.38 -9.99112e-08 -0.00120889
7.4 -9.95918e-08 -0.00119891
7.42 -9.92694e-08 -0.00118901
7.44 -9.89439e-08 -0.00117918
7.46 -9.86156e-08 -0.00116943
7.48 -9.82845e-08 -0.00115976
7.5 -9.79509e-08 -0.00115017
7.52 -9.76148e-08 -0.00114065
7.54 -9.72763e-08 -0.00113122
7.56 -9.69356e-08 -0.00112185
7.58 -9.65929e-08 -0.00111257
7.6 -9.62481e-08 -0.00110337
7.62 -9.59016e-08 -0.00109424
7.64 -9.55533e-08 -0.00108519
7.66 -9.52034e-08 -0.00107621
7.68 -9.48521e-08 -0.00106732
7.7 -9.44994e-08 -0.0010585
7.72 -9.41454e-08 -0.00104975
7.74 -9.37902e-08 -0.00104109
7.76 -9.34341e-08 -0.0010325
7.78 -9.3077e-08 -0.00102398
7.8 -9.27191e-08 -0.00101554
7.82 -9.23604e-08 -0.00100717
7.84 -9.20011e-08 -0.000998884
7.86 -9.16413e-08 -0.000990668
7.88 -9.12811e-08 -0.000982525
7.9 -9.09206e-08 -0.000974456
7.92 -9.05598e-08 -0.000966459
7.94 -9.01988e-08 -0.000958535
7.96 -8.98378e-08 -0.000950683
7.98 -8.94767e-08 -0.000942902
8 -8.91158e-08 -0.000935191
8.02 -8.87551e-08 -0.000927551
8.04 -8.83946e-08 -0.000919981
8.06 -8.80344e-08 -0.00091248
8.08 -8.76746e-08 -0.000905047
8.1 -8.73153e-08 -0.000897682
8.12 -8.69566e-08 -0.000890385
8.14 -8.65984e-08 -0.000883154
8.16 -8.6241e-08 -0.000875989
8.18 -8.58842e-08 -0.000868889
8.2 -8.55283e-08 -0.000861855
8.22 -8.51732e-08 -0.000854884
8.24 -8.4819e-08 -0.000847977
8.26 -8.44657e-08 -0.000841133
8.28 -8.41135e-08 -0.000834351
8.3 -8.37623e-08 -0.000827631
8.32 -8.34123e-08 -0.000820971
8.34 -8.30634e-08 -0.000814372
8.36 -8.27156e-08 -0.000807832
8.38 -8.23692e-08 -0.00080135
8.4 -8.20239e-08 -0.000794927
8.42 -8.168e-08 -0.000788561
8.44 -8.13375e-08 -0.000782252
8.46 -8.09963e-08 -0.000775999
8.48 -8.06565e-08 -0.000769802
8.5 -8.03182e-08 -0.000763659
8.52 -7.99813e-08 -0.00075757
8.54 -7.9646e-08 -0.000751534
8.56 -7.93121e-08 -0.000745552
8.58 -7.89798e-08 -0.000739621
8.6 -7.8649e-08 -0.000733741
8.62 -7.83199e-08 -0.000727912
8.64 -7.79923e-08 -0.000722134
8.66 -7.76663e-08 -0.000716404
8.68 -7.7342e-08 -0.000710724
8.7 -7.70193e-08 -0.000705091
8.72 -7.66983e-08 -0.000699506
8.74 -7.63789e-08 -0.000693968
8.76 -7.60613e-08 -0.000688475
8.78 -7.57453e-08 -0.000683029
8.8 -7.5431e-08 -0.000677628
8.82 -7.51184e-08 -0.00067227
8.84 -7.48075e-08 -0.000666957
8.86 -7.44983e-08 -0.000661687
8.88 -7.41908e-08 -0.00065646
8.9 -7.3885e-08 -0.000651274
8.92 -7.35809e-08 -0.00064613
8.94 -7.32785e-08 -0.000641028
8.96 -7.29779e-08 -0.000635965
8.98 -7.26789e-08 -0.000630942
9 -7.23817e-08 -0.000625959
9.02 -7.20861e-08 -0.000621015
9.04 -7.17922e-08 -0.000616109
9.06 -7.15e-08 -0.00061124
9.08 -7.12095e-08 -0.000606409
9.1 -7.09207e-08 -0.000601615
9.12 -7.06335e-08 -0.000596857
9.14 -7.0348e-08 -0.000592136
9.16 -7.00641e-08 -0.000587449
9.18 -6.97819e-08 -0.000582798
9.2 -6.95012e-08 -0.000578181
9.22 -6.92222e-08 -0.000573599
9.24 -6.89448e-08 -0.00056905
9.26 -6.8669e-08 -0.000564534
9.28 -6.83947e-08 -0.000560052
9.3 -6.81221e-08 -0.000555602
9.32 -6.78509e-08 -0.000551184
9.34 -6.75813e-08 -0.000546798
9.36 -6.73133e-08 -0.000542443
9.38 -6.70467e-08 -0.000538119
9.4 -6.67816e-08 -0.000533826
9.42 -6.6518e-08 -0.000529564
9.44 -6.62559e-08 -0.000525332
9.46 -6.59952e-08 -0.000521129
9.48 -6.5736e-08 -0.000516956
9.5 -6.54782e-08 -0.000512812
9.52 -6.52217e-08 -0.000508696
9.54 -6.49667e-08 -0.00050461
9.56 -6.47131e-08 -0.000500551
9.58 -6.44608e-08 -0.000496521
9.6 -6.42098e-08 -0.000492518
9.62 -6.39602e-08 -0.000488543
9.64 -6.37119e-08 -0.000484595
9.66 -6.34648e-08 -0.000480674
9.68 -6.32191e-08 -0.00047678
9.7 -6.29746e-08 -0.000472912
9.72 -6.27314e-08 -0.000469071
9.74 -6.24894e-08 -0.000465256
9.76 -6.22486e-08 -0.000461466
9.78 -6.20091e-08 -0.000457703
9.8 -6.17707e-08 -0.000453964
9.82 -6.15335e-08 -0.000450252
9.84 -6.12974e-08 -0.000446564
9.86 -6.10625e-08 -0.000442901
9.88 -6.08287e-08 -0.000439263
9.9 -6.0596e-08 -0.000435649
9.92 -6.03645e-08 -0.00043206
9.94 -6.0134e-08 -0.000428495
9.96 -5.99046e-08 -0.000424954
9.98 -5.96763e-08 -0.000421437
10 -5.9449e-08 -0.000417944
10.02 -5.92227e-08 -0.000414475
10.04 -5.89975e-08 -0.000411029
10.06 -5.87733e-08 -0.000407606
10.08 -5.855e-08 -0.000404207
10.1 -5.83278e-08 -0.000400831
10.12 -5.81065e-08 -0.000397477
10.14 -5.78862e-08 -0.000394147
10.16 -5.76669e-08 -0.000390839
10.18 -5.74485e-08 -0.000387554
10.2 -5.7231e-08 -0.000384292
10.22 -5.70144e-08 -0.000381052
10.24 -5.67988e-08 -0.000377834
10.26 -5.6584e-08 -0.000374639
10.28 -5.63702e-08 -0.000371465
10.3 -5.61572e-08 -0.000368313
10.32 -5.59451e-08 -0.000365184
10.34 -5.57338e-08 -0.000362076
10.36 -5.55235e-08 -0.00035899
10.38 -5.53139e-08 -0.000355925
10.4 -5.51052e-08 -0.000352882
10.42 -5.48973e-08 -0.00034986
10.44 -5.46903e-08 -0.000346859
10.46 -5.44841e-08 -0.00034388
10.48 -5.42787e-08 -0.000340922
10.5 -5.40741e-08 -0.000337984
10.52 -5.38702e-08 -0.000335068
10.54 -5.36672e-08 -0.000332173
10.56 -5.3465e-08 -0.000329298
10.58 -5.32635e-08 -0.000326444
10.6 -5.30628e-08 -0.00032361
10.62 -5.28629e-08 -0.000320797
10.64 -5.26638e-08 -0.000318004
10.66 -5.24654e-08 -0.000315231
10.68 -5.22678e-08 -0.000312479
10.7 -5.20709e-08 -0.000309747
10.72 -5.18748e-08 -0.000307034
10.74 -5.16794e-08 -0.000304342
10.76 -5.14847e-08 -0.00030167
10.78 -5.12908e-08 -0.000299017
10.8 -5.10976e-08 -0.000296384
10.82 -5.09052e-08 -0.00029377
10.84 -5.07135e-08 -0.000291176
10.86 -5.05225e-08 -0.000288601
10.88 -5.03322e-08 -0.000286045
10.9 -5.01426e-08 -0.000283509
10.92 -4.99538e-08 -0.000280991
10.94 -4.97657e-08 -0.000278493
10.96 -4.95783e-08 -0.000276013
10.98 -4.93915e-08 -0.000273552
11 -4.92056e-08 -0.00027111
11.02 -4.90203e-08 -0.000268687
11.04 -4.88357e-08 -0.000266281
11.06 -4.86518e-08 -0.000263895
11.08 -4.84686e-08 -0.000261526
11.1 -4.82862e-08 -0.000259176
11.12 -4.81044e-08 -0.000256843
11.14 -4.79233e-08 -0.000254529
11.16 -4.7743e-08 -0.000252232
11.18 -4.75633e-08 -0.000249954
11.2 -4.73843e-08 -0.000247692
11.22 -4.72061e-08 -0.000245449
11.24 -4.70285e-08 -0.000243222
11.26 -4.68516e-08 -0.000241013
11.28 -4.66754e-08 -0.000238821
11.3 -4.64999e-08 -0.000236647
11.32 -4.63251e-08 -0.000234489
11.34 -4.6151e-08 -0.000232348
11.36 -4.59776e-08 -0.000230223
11.38 -4.58049e-08 -0.000228116
11.4 -4.56328e-08 -0.000226024
11.42 -4.54615e-08 -0.00022395
11.44 -4.52909e-08 -0.000221891
11.46 -4.51209e-08 -0.000219849
11.48 -4.49517e-08 -0.000217822
11.5 -4.47831e-08 -0.000215812
11.52 -4.46152e-08 -0.000213817
11.54 -4.4448e-08 -0.000211838
11.56 -4.42815e-08 -0.000209874
11.58 -4.41157e-08 -0.000207926
11.6 -4.39506e-08 -0.000205993
11.62 -4.37862e-08 -0.000204076
11.64 -4.36225e-08 -0.000202173
11.66 -4.34594e-08 -0.000200285
11.68 -4.32971e-08 -0.000198413
11.7 -4.31354e-08 -0.000196554
11.72 -4.29744e-08 -0.000194711
11.74 -4.28141e-08 -0.000192882
11.76 -4.26545e-08 -0.000191067
11.78 -4.24956e-08 -0.000189266
11.8 -4.23373e-08 -0.00018748
11.82 -4.21798e-08 -0.000185707
11.84 -4.20229e-08 -0.000183948
11.86 -4.18667e-08 -0.000182203
11.88 -4.17112e-08 -0.000180471
11.9 -4.15564e-08 -0.000178753
11.92 -4.14023e-08 -0.000177049
11.94 -4.12488e-08 -0.000175357
11.96 -4.1096e-08 -0.000173679
11.98 -4.09439e-08 -0.000172013
12 -4.07925e-08 -0.000170361
12.02 -4.06417e-08 -0.000168721
12.04 -4.04917e-08 -0.000167094
12.06 -4.03423e-08 -0.000165479
12.08 -4.01935e-08 -0.000163877
12.1 -4.00455e-08 -0.000162287
12.12 -3.98981e-08 -0.000160709
12.14 -3.97513e-08 -0.000159143
12.16 -3.96053e-08 -0.000157589
12.18 -3.94599e-08 -0.000156047
12.2 -3.93152e-08 -0.000154516
12.22 -3.91711e-08 -0.000152997
12.24 -3.90277e-08 -0.000151489
12.26 -3.88849e-08 -0.000149993
12.28 -3.87428e-08 -0.000148508
12.3 -3.86014e-08 -0.000147034
12.32 -3.84606e-08 -0.000145572
12.34 -3.83205e-08 -0.00014412
12.36 -3.8181e-08 -0.000142678
12.38 -3.80421e-08 -0.000141248
12.4 -3.79039e-08 -0.000139828
12.42 -3.77664e-08 -0.000138418
12.44 -3.76294e-08 -0.000137019
12.46 -3.74932e-08 -0.00013563
12.48 -3.73575e-08 -0.000134252
12.5 -3.72225e-08 -0.000132883
12.52 -3.70881e-08 -0.000131524
12.54 -3.69543e-08 -0.000130175
12.56 -3.68212e-08 -0.000128836
12.58 -3.66886e-08 -0.000127507
12.6 -3.65567e-08 -0.000126187
12.62 -3.64255e-08 -0.000124876
12.64 -3.62948e-08 -0.000123575
12.66 -3.61647e-08 -0.000122283
12.68 -3.60353e-08 -0.000121001
12.7 -3.59064e-08 -0.000119727
12.72 -3.57782e-08 -0.000118462
12.74 -3.56505e-08 -0.000117207
12.76 -3.55234e-08 -0.00011596
12.78 -3.5397e-08 -0.000114722
12.8 -3.52711e-08 -0.000113492
12.82 -3.51458e-08 -0.000112272
12.84 -3.50211e-08 -0.000111059
12.86 -3.4897e-08 -0.000109855
12.88 -3.47734e-08 -0.00010866
12.9 -3.46504e-08 -0.000107472
12.92 -3.4528e-08 -0.000106293
12.94 -3.44062e-08 -0.000105122
12.96 -3.42849e-08 -0.000103959
12.98 -3.41642e-08 -0.000102804
13 -3.40441e-08 -0.000101656
13.02 -3.39245e-08 -0.000100517
13.04 -3.38054e-08 -9.9385e-05
13.06 -3.36869e-08 -9.82609e-05
13.08 -3.35689e-08 -9.71443e-05
13.1 -3.34515e-08 -9.60353e-05
13.12 -3.33347e-08 -9.49338e-05
13.14 -3.32183e-08 -9.38396e-05
13.16 -3.31025e-08 -9.27527e-05
13.18 -3.29872e-08 -9.16732e-05
13.2 -3.28724e-08 -9.06008e-05
13.22 -3.27582e-08 -8.95355e-05
13.24 -3.26445e-08 -8.84774e-05
13.26 -3.25313e-08 -8.74262e-05
13.28 -3.24186e-08 -8.6382e-05
13.3 -3.23064e-08 -8.53448e-05
13.32 -3.21947e-08 -8.43143e-05
13.34 -3.20835e-08 -8.32907e-05
13.36 -3.19728e-08 -8.22738e-05
13.38 -3.18627e-08 -8.12636e-05
13.4 -3.1753e-08 -8.026e-05
13.42 -3.16437e-08 -7.9263e-05
13.44 -3.1535e-08 -7.82726e-05
13.46 -3.14268e-08 -7.72886e-05
13.48 -3.1319e-08 -7.6311e-05
13.5 -3.12117e-08 -7.53399e-05
13.52 -3.11049e-08 -7.43751e-05
13.54 -3.09986e-08 -7.34166e-05
13.56 -3.08927e-08 -7.24643e-05
13.58 -3.07873e-08 -7.15183e-05
13.6 -3.06823e-08 -7.05784e-05
13.62 -3.05778e-08 -6.96446e-05
13.64 -3.04737e-08 -6.87169e-05
13.66 -3.03701e-08 -6.77953e-05
13.68 -3.0267e-08 -6.68796e-05
13.7 -3.01643e-08 -6.59699e-05
13.72 -3.0062e-08 -6.50661e-05
13.74 -2.99602e-08 -6.41682e-05
13.76 -2.98588e-08 -6.32762e-05
13.78 -2.97578e-08 -6.23899e-05
13.8 -2.96573e-08 -6.15094e-05
13.82 -2.95572e-08 -6.06346e-05
13.84 -2.94575e-08 -5.97656e-05
13.86 -2.93583e-08 -5.89022e-05
13.88 -2.92594e-08 -5.80444e-05
13.9 -2.9161e-08 -5.71922e-05
13.92 -2.9063e-08 -5.63456e-05
13.94 -2.89654e-08 -5.55044e-05
13.96 -2.88682e-08 -5.46688e-05
13.98 -2.87714e-08 -5.38387e-05
14 -2.86751e-08 -5.30139e-05
14.02 -2.85791e-08 -5.21946e-05
14.04 -2.84835e-08 -5.13807e-05
14.06 -2.83883e-08 -5.0572e-05
14.08 -2.82935e-08 -4.97687e-05
14.1 -2.81991e-08 -4.89707e-05
14.12 -2.81051e-08 -4.81779e-05
14.14 -2.80115e-08 -4.73903e-05
14.16 -2.79183e-08 -4.66079e-05
14.18 -2.78254e-08 -4.58307e-05
14.2 -2.77329e-08 -4.50586e-05
14.22 -2.76408e-08 -4.42916e-05
14.24 -2.75491e-08 -4.35297e-05
14.26 -2.74577e-08 -4.27728e-05
14.28 -2.73667e-08 -4.2021e-05
14.3 -2.72761e-08 -4.12741e-05
14.32 -2.71859e-08 -4.05322e-05
14.34 -2.7096e-08 -3.97953e-05
14.36 -2.70065e-08 -3.90633e-05
14.38 -2.69173e-08 -3.83362e-05
14.4 -2.68285e-08 -3.76139e-05
14.42 -2.67401e-08 -3.68965e-05
14.44 -2.6652e-08 -3.61839e-05
14.46 -2.65642e-08 -3.5476e-05
14.48 -2.64768e-08 -3.4773e-05
14.5 -2.63898e-08 -3.40747e-05
14.52 -2.63031e-08 -3.3381e-05
14.54 -2.62168e-08 -3.26921e-05
14.56 -2.61308e-08 -3.20078e-05
14.58 -2.60451e-08 -3.13282e-05
14.6 -2.59598e-08 -3.06532e-05
14.62 -2.58748e-08 -2.99827e-05
14.64 -2.57902e-08 -2.93169e-05
14.66 -2.57059e-08 -2.86555e-05
14.68 -2.56219e-08 -2.79987e-05
14.7 -2.55383e-08 -2.73463e-05
14.72 -2.5455e-08 -2.66984e-05
14.74 -2.5372e-08 -2.6055e-05
14.76 -2.52893e-08 -2.5416e-05
14.78 -2.5207e-08 -2.47813e-05
14.8 -2.5125e-08 -2.4151e-05
14.82 -2.50433e-08 -2.35251e-05
14.84 -2.4962e-08 -2.29035e-05
14.86 -2.48809e-08 -2.22861e-05
14.88 -2.48002e-08 -2.16731e-05
14.9 -2.47198e-08 -2.10642e-05
14.92 -2.46398e-08 -2.04596e-05
14.94 -2.456e-08 -1.98592e-05
14.96 -2.44806e-08 -1.9263e-05
14.98 -2.44014e-08 -1.86709e-05
15 -2.43226e-08 -1.80829e-05
15.02 -2.42441e-08 -1.7499e-05
15.04 -2.41659e-08 -1.69191e-05
15.06 -2.4088e-08 -1.63434e-05
15.08 -2.40104e-08 -1.57716e-05
15.1 -2.39331e-08 -1.52038e-05
15.12 -2.38561e-08 -1.464e-05
15.14 -2.37795e-08 -1.40802e-05
15.16 -2.37031e-08 -1.35243e-05
15.18 -2.3627e-08 -1.29722e-05
15.2 -2.35513e-08 -1.24241e-05
15.22 -2.34758e-08 -1.18798e-05
15.24 -2.34006e-08 -1.13393e-05
15.26 -2.33257e-08 -1.08026e-05
15.28 -2.32511e-08 -1.02697e-05
15.3 -2.31768e-08 -9.74051e-06
15.32 -2.31028e-08 -9.21507e-06
15.34 -2.30291e-08 -8.69333e-06
15.36 -2.29557e-08 -8.17526e-06
15.38 -2.28826e-08 -7.66085e-06
15.4 -2.28097e-08 -7.15005e-06
15.42 -2.27372e-08 -6.64286e-06
15.44 -2.26649e-08 -6.13925e-06
15.46 -2.25929e-08 -5.63919e-06
15.48 -2.25213e-08 -5.14265e-06
15.5 -2.24498e-08 -4.64962e-06
15.52 -2.23787e-08 -4.16006e-06
15.54 -2.23079e-08 -3.67396e-06
15.56 -2.22373e-08 -3.19128e-06
15.58 -2.2167e-08 -2.71201e-06
15.6 -2.2097e-08 -2.23612e-06
15.62 -2.20272e-08 -1.76359e-06
15.64 -2.19578e-08 -1.29438e-06
15.66 -2.18886e-08 -8.28482e-07
15.68 -2.18197e-08 -3.65864e-07
15.7 -2.1751e-08 9.34948e-08
15.72 -2.16827e-08 5.4962e-07
15.74 -2.16146e-08 1.00254e-06
15.76 -2.15468e-08 1.45227e-06
15.78 -2.14792e-08 1.89884e-06
15.8 -2.14119e-08 2.34227e-06
15.82 -2.13449e-08 2.78258e-06
15.84 -2.12781e-08 3.21981e-06
15.86 -2.12116e-08 3.65397e-06
15.88 -2.11454e-08 4.08509e-06
15.9 -2.10794e-08 4.51319e-06
15.92 -2.10137e-08 4.93829e-06
15.94 -2.09483e-08 5.36042e-06
15.96 -2.08831e-08 5.7796e-06
15.98 -2.08182e-08 6.19585e-06
16 -2.07535e-08 6.6092e-06
16.02 -2.06891e-08 7.01967e-06
16.04 -2.06249e-08 7.42728e-06
16.06 -2.0561e-08 7.83205e-06
16.08 -2.04974e-08 8.23401e-06
16.1 -2.0434e-08 8.63318e-06
16.12 -2.03708e-08 9.02959e-06
16.14 -2.03079e-08 9.42324e-06
16.16 -2.02453e-08 9.81417e-06
16.18 -2.01829e-08 1.02024e-05
16.2 -2.01207e-08 1.05879e-05
16.22 -2.00588e-08 1.09708e-05
16.24 -1.99971e-08 1.13511e-05
16.26 -1.99357e-08 1.17287e-05
16.28 -1.98746e-08 1.21038e-05
16.3 -1.98136e-08 1.24762e-05
16.32 -1.97529e-08 1.28461e-05
16.34 -1.96925e-08 1.32135e-05
16.36 -1.96323e-08 1.35784e-05
16.38 -1.95723e-08 1.39407e-05
16.4 -1.95125e-08 1.43006e-05
16.42 -1.9453e-08 1.46581e-05
16.44 -1.93938e-08 1.50131e-05
16.46 -1.93347e-08 1.53657e-05
16.48 -1.92759e-08 1.57159e-05
16.5 -1.92173e-08 1.60637e-05
16.52 -1.9159e-08 1.64092e-05
16.54 -1.91009e-08 1.67523e-05
16.56 -1.9043e-08 1.70931e-05
16.58 -1.89853e-08 1.74316e-05
16.6 -1.89279e-08 1.77679e-05
16.62 -1.88707e-08 1.81018e-05
16.64 -1.88137e-08 1.84335e-05
16.66 -1.87569e-08 1.8763e-05
16.68 -1.87004e-08 1.90903e-05
16.7 -1.86441e-08 1.94154e-05
16.72 -1.8588e-08 1.97383e-05
16.74 -1.85321e-08 2.00591e-05
16.76 -1.84764e-08 2.03777e-05
16.78 -1.8421e-08 2.06942e-05
16.8 -1.83658e-08 2.10086e-05
16.82 -1.83107e-08 2.13209e-05
16.84 -1.82559e-08 2.16311e-05
16.86 -1.82013e-08 2.19393e-05
16.88 -1.8147e-08 2.22454e-05
16.9 -1.80928e-08 2.25494e-05
16.92 -1.80388e-08 2.28515e-05
16.94 -1.79851e-08 2.31516e-05
16.96 -1.79315e-08 2.34497e-05
16.98 -1.78782e-08 2.37458e-05
17 -1.7825e-08 2.40399e-05
17.02 -1.77721e-08 2.43322e-05
17.04 -1.77194e-08 2.46225e-05
17.06 -1.76668e-08 2.49109e-05
17.08 -1.76145e-08 2.51973e-05
17.1 -1.75624e-08 2.54819e-05
17.12 -1.75105e-08 2.57647e-05
17.14 -1.74587e-08 2.60456e-05
17.16 -1.74072e-08 2.63246e-05
17.18 -1.73558e-08 2.66018e-05
17.2 -1.73047e-08 2.68772e-05
17.22 -1.72537e-08 2.71507e-05
17.24 -1.7203e-08 2.74225e-05
17.26 -1.71524e-08 2.76925e-05
17.28 -1.7102e-08 2.79608e-05
17.3 -1.70518e-08 2.82272e-05
17.32 -1.70018e-08 2.8492e-05
17.34 -1.6952e-08 2.8755e-05
17.36 -1.69024e-08 2.90163e-05
17.38 -1.6853e-08 2.92758e-05
17.4 -1.68037e-08 2.95337e-05
17.42 -1.67546e-08 2.97899e-05
17.44 -1.67057e-08 3.00444e-05
17.46 -1.6657e-08 3.02972e-05
17.48 -1.66085e-08 3.05484e-05
17.5 -1.65602e-08 3.07979e-05
17.52 -1.6512e-08 3.10458e-05
17.54 -1.6464e-08 3.12921e-05
17.56 -1.64162e-08 3.15368e-05
17.58 -1.63685e-08 3.17798e-05
17.6 -1.63211e-08 3.20213e-05
17.62 -1.62738e-08 3.22612e-05
17.64 -1.62267e-08 3.24995e-05
17.66 -1.61797e-08 3.27362e-05
17.68 -1.6133e-08 3.29714e-05
17.7 -1.60864e-08 3.3205e-05
17.72 -1.60399e-08 3.34371e-05
17.74 -1.59937e-08 3.36677e-05
17.76 -1.59476e-08 3.38967e-05
17.78 -1.59017e-08 3.41242e-05
17.8 -1.58559e-08 3.43502e-05
17.82 -1.58103e-08 3.45748e-05
17.84 -1.57649e-08 3.47978e-05
17.86 -1.57196e-08 3.50194e-05
17.88 -1.56745e-08 3.52395e-05
17.9 -1.56296e-08 3.54581e-05
17.92 -1.55848e-08 3.56752e-05
17.94 -1.55402e-08 3.5891e-05
17.96 -1.54957e-08 3.61053e-05
17.98 -1.54514e-08 3.63181e-05
18 -1.54073e-08 3.65295e-05
18.02 -1.53633e-08 3.67396e-05
18.04 -1.53195e-08 3.69482e-05
18.06 -1.52758e-08 3.71554e-05
18.08 -1.52323e-08 3.73612e-05
18.1 -1.51889e-08 3.75656e-05
18.12 -1.51457e-08 3.77686e-05
18.14 -1.51027e-08 3.79703e-05
18.16 -1.50598e-08 3.81706e-05
18.18 -1.5017e-08 3.83696e-05
18.2 -1.49744e-08 3.85672e-05
18.22 -1.4932e-08 3.87634e-05
18.24 -1.48897e-08 3.89584e-05
18.26 -1.48475e-08 3.91519e-05
18.28 -1.48055e-08 3.93442e-05
18.3 -1.47636e-08 3.95351e-05
18.32 -1.47219e-08 3.97248e-05
18.34 -1.46804e-08 3.99131e-05
18.36 -1.46389e-08 4.01002e-05
18.38 -1.45977e-08 4.02859e-05
18.4 -1.45565e-08 4.04704e-05
18.42 -1.45155e-08 4.06535e-05
18.44 -1.44747e-08 4.08354e-05
18.46 -1.4434e-08 4.10161e-05
18.48 -1.43934e-08 4.11955e-05
18.5 -1.4353e-08 4.13736e-05
18.52 -1.43127e-08 4.15505e-05
18.54 -1.42726e-08 4.17261e-05
18.56 -1.42326e-08 4.19006e-05
18.58 -1.41927e-08 4.20737e-05
18.6 -1.4153e-08 4.22457e-05
18.62 -1.41134e-08 4.24165e-05
18.64 -1.40739e-08 4.2586e-05
18.66 -1.40346e-08 4.27543e-05
18.68 -1.39954e-08 4.29215e-05
18.7 -1.39564e-08 4.30874e-05
18.72 -1.39175e-08 4.32522e-05
18.74 -1.38787e-08 4.34158e-05
18.76 -1.384e-08 4.35782e-05
18.78 -1.38015e-08 4.37394e-05
18.8 -1.37631e-08 4.38995e-05
18.82 -1.37249e-08 4.40584e-05
18.84 -1.36867e-08 4.42162e-05
18.86 -1.36487e-08 4.43728e-05
18.88 -1.36109e-08 4.45283e-05
18.9 -1.35731e-08 4.46827e-05
18.92 -1.35355e-08 4.48359e-05
18.94 -1.34981e-08 4.4988e-05
18.96 -1.34607e-08 4.5139e-05
18.98 -1.34235e-08 4.52889e-05
19 -1.33864e-08 4.54377e-05
19.02 -1.33494e-08 4.55854e-05
19.04 -1.33126e-08 4.5732e-05
19.06 -1.32758e-08 4.58775e-05
19.08 -1.32392e-08 4.60219e-05
19.1 -1.32028e-08 4.61653e-05
19.12 -1.31664e-08 4.63076e-05
19.14 -1.31302e-08 4.64488e-05
19.16 -1.30941e-08 4.6589e-05
19.18 -1.30581e-08 4.67281e-05
19.2 -1.30222e-08 4.68662e-05
19.22 -1.29865e-08 4.70033e-05
19.24 -1.29509e-08 4.71393e-05
19.26 -1.29154e-08 4.72743e-05
19.28 -1.288e-08 4.74082e-05
19.3 -1.28448e-08 4.75412e-05
19.32 -1.28096e-08 4.76731e-05
19.34 -1.27746e-08 4.7804e-05
19.36 -1.27397e-08 4.7934e-05
19.38 -1.27049e-08 4.80629e-05
19.4 -1.26702e-08 4.81909e-05
19.42 -1.26357e-08 4.83178e-05
19.44 -1.26013e-08 4.84438e-05
19.46 -1.25669e-08 4.85689e-05
19.48 -1.25327e-08 4.86929e-05
19.5 -1.24986e-08 4.8816e-05
19.52 -1.24647e-08 4.89382e-05
19.54 -1.24308e-08 4.90594e-05
19.56 -1.23971e-08 4.91797e-05
19.58 -1.23634e-08 4.9299e-05
19.6 -1.23299e-08 4.94174e-05
19.62 -1.22965e-08 4.95349e-05
19.64 -1.22632e-08 4.96515e-05
19.66 -1.223e-08 4.97671e-05
19.68 -1.2197e-08 4.98818e-05
19.7 -1.2164e-08 4.99957e-05
19.72 -1.21311e-08 5.01086e-05
19.74 -1.20984e-08 5.02207e-05