Title=" Lid Driven Flow"
VARIABLES="X","Y","U","V","psi","xi"
ZONE T= "BOX", I= 101, J=101, F=POINT
0 0 0 0 -93.7698 0
0.01 0 0 0 0 0
0.02 0 0 0 0 0
0.03 0 0 0 0 -176.274
0.04 0 0 0 0 -152.077
0.05 0 0 0 0 -131.972
0.06 0 0 0 0 -115.828
0.07 0 0 0 0 -102.924
0.08 0 0 0 0 -92.5713
0.09 0 0 0 0 -84.2029
0.1 0 0 0 0 -77.3757
0.11 0 0 0 0 -71.7463
0.12 0 0 0 0 -67.0501
0.13 0 0 0 0 -63.0821
0.14 0 0 0 0 -59.6834
0.15 0 0 0 0 -56.7306
0.16 0 0 0 0 -54.1273
0.17 0 0 0 0 -51.7985
0.18 0 0 0 0 -49.6858
0.19 0 0 0 0 -47.744
0.2 0 0 0 0 -45.9382
0.21 0 0 0 0 -44.2416
0.22 0 0 0 0 -42.6341
0.23 0 0 0 0 -41.1007
0.24 0 0 0 0 -39.6302
0.25 0 0 0 0 -38.2149
0.26 0 0 0 0 -36.8493
0.27 0 0 0 0 -35.5297
0.28 0 0 0 0 -34.254
0.29 0 0 0 0 -33.021
0.3 0 0 0 0 -31.8301
0.31 0 0 0 0 -30.6813
0.32 0 0 0 0 -29.5748
0.33 0 0 0 0 -28.5113
0.34 0 0 0 0 -27.491
0.35 0 0 0 0 -26.5144
0.36 0 0 0 0 -25.582
0.37 0 0 0 0 -24.6938
0.38 0 0 0 0 -23.8501
0.39 0 0 0 0 -23.0505
0.4 0 0 0 0 -22.295
0.41 0 0 0 0 -21.583
0.42 0 0 0 0 -20.914
0.43 0 0 0 0 -20.2871
0.44 0 0 0 0 -19.7016
0.45 0 0 0 0 -19.1563
0.46 0 0 0 0 -18.6504
0.47 0 0 0 0 -18.1825
0.48 0 0 0 0 -17.7515
0.49 0 0 0 0 -17.3561
0.5 0 0 0 0 -16.995
0.51 0 0 0 0 -16.6668
0.52 0 0 0 0 -16.3703
0.53 0 0 0 0 -16.1042
0.54 0 0 0 0 -15.8671
0.55 0 0 0 0 -15.6577
0.56 0 0 0 0 -15.4748
0.57 0 0 0 0 -15.3172
0.58 0 0 0 0 -15.1836
0.59 0 0 0 0 -15.0729
0.6 0 0 0 0 -14.9841
0.61 0 0 0 0 -14.916
0.62 0 0 0 0 -14.8676
0.63 0 0 0 0 -14.838
0.64 0 0 0 0 -14.8263
0.65 0 0 0 0 -14.8316
0.66 0 0 0 0 -14.8531
0.67 0 0 0 0 -14.8903
0.68 0 0 0 0 -14.9424
0.69 0 0 0 0 -15.009
0.7 0 0 0 0 -15.0897
0.71 0 0 0 0 -15.1843
0.72 0 0 0 0 -15.2927
0.73 0 0 0 0 -15.4152
0.74 0 0 0 0 -15.5521
0.75 0 0 0 0 -15.7042
0.76 0 0 0 0 -15.8728
0.77 0 0 0 0 -16.0594
0.78 0 0 0 0 -16.2664
0.79 0 0 0 0 -16.4968
0.8 0 0 0 0 -16.7545
0.81 0 0 0 0 -17.0446
0.82 0 0 0 0 -17.3736
0.83 0 0 0 0 -17.7497
0.84 0 0 0 0 -18.1832
0.85 0 0 0 0 -18.687
0.86 0 0 0 0 -19.2773
0.87 0 0 0 0 -19.9738
0.88 0 0 0 0 -20.8018
0.89 0 0 0 0 -21.7905
0.9 0 0 0 0 -22.9808
0.91 0 0 0 0 -24.4136
0.92 0 0 0 0 -26.16
0.93 0 0 0 0 -28.2703
0.94 0 0 0 0 -30.8919
0.95 0 0 0 0 -34.0558
0.96 0 0 0 0 -38.1696
0.97 0 0 0 0 -43.0733
0.98 0 0 0 0 -50.3373
0.99 0 0 0 0 -58.5982
1 0 0 0 0 -76.4806
0 0.01 0 0 0 0
0.01 0.01 0 0 0 0
0.02 0.01 0 0 0 -0.00151811
0.03 0.01 0 0 0 -0.0183411
0.04 0.01 0 0 0 -0.0477252
0.05 0.01 0 0 0 -0.0844585
0.06 0.01 0 0 0 -0.123908
0.07 0.01 0 0 0 -0.162545
0.08 0.01 0 0 0 -0.197863
0.09 0.01 0 0 0 -0.228198
0.1 0.01 0 0 0 -0.252546
0.11 0.01 0 0 0 -0.270406
0.12 0.01 0 0 0 -0.281642
0.13 0.01 0 0 0 -0.286363
0.14 0.01 0 0 0 -0.284816
0.15 0.01 0 0 0 -0.277297
0.16 0.01 0 0 0 -0.264078
0.17 0.01 0 0 0 -0.245359
0.18 0.01 0 0 0 -0.221229
0.19 0.01 0 0 0 -0.191651
0.2 0.01 0 0 0 -0.15646
0.21 0.01 0 0 0 -0.115373
0.22 0.01 0 0 0 -0.0680126
0.23 0.01 0 0 0 -0.0139338
0.24 0.01 0 0 0 0.0473497
0.25 0.01 0 0 0 0.116334
0.26 0.01 0 0 0 0.193495
0.27 0.01 0 0 0 0.279269
0.28 0.01 0 0 0 0.374023
0.29 0.01 0 0 0 0.478038
0.3 0.01 0 0 0 0.591487
0.31 0.01 0 0 0 0.714418
0.32 0.01 0 0 0 0.846737
0.33 0.01 0 0 0 0.988189
0.34 0.01 0 0 0 1.13835
0.35 0.01 0 0 0 1.29659
0.36 0.01 0 0 0 1.4621
0.37 0.01 0 0 0 1.63384
0.38 0.01 0 0 0 1.81059
0.39 0.01 0 0 0 1.99087
0.4 0.01 0 0 0 2.17303
0.41 0.01 0 0 0 2.35519
0.42 0.01 0 0 0 2.53531
0.43 0.01 0 0 0 2.71117
0.44 0.01 0 0 0 2.8804
0.45 0.01 0 0 0 3.04055
0.46 0.01 0 0 0 3.18909
0.47 0.01 0 0 0 3.32344
0.48 0.01 0 0 0 3.44106
0.49 0.01 0 0 0 3.53947
0.5 0.01 0 0 0 3.61633
0.51 0.01 0 0 0 3.66944
0.52 0.01 0 0 0 3.69688
0.53 0.01 0 0 0 3.697
0.54 0.01 0 0 0 3.66852
0.55 0.01 0 0 0 3.61055
0.56 0.01 0 0 0 3.52268
0.57 0.01 0 0 0 3.40499
0.58 0.01 0 0 0 3.2581
0.59 0.01 0 0 0 3.08319
0.6 0.01 0 0 0 2.88201
0.61 0.01 0 0 0 2.65688
0.62 0.01 0 0 0 2.41065
0.63 0.01 0 0 0 2.14668
0.64 0.01 0 0 0 1.86874
0.65 0.01 0 0 0 1.58098
0.66 0.01 0 0 0 1.28781
0.67 0.01 0 0 0 0.993768
0.68 0.01 0 0 0 0.703438
0.69 0.01 0 0 0 0.421297
0.7 0.01 0 0 0 0.151597
0.71 0.01 0 0 0 -0.101758
0.72 0.01 0 0 0 -0.335323
0.73 0.01 0 0 0 -0.546205
0.74 0.01 0 0 0 -0.732135
0.75 0.01 0 0 0 -0.891512
0.76 0.01 0 0 0 -1.02343
0.77 0.01 0 0 0 -1.12766
0.78 0.01 0 0 0 -1.20463
0.79 0.01 0 0 0 -1.25535
0.8 0.01 0 0 0 -1.28136
0.81 0.01 0 0 0 -1.28458
0.82 0.01 0 0 0 -1.26731
0.83 0.01 0 0 0 -1.23201
0.84 0.01 0 0 0 -1.18128
0.85 0.01 0 0 0 -1.11771
0.86 0.01 0 0 0 -1.04384
0.87 0.01 0 0 0 -0.962036
0.88 0.01 0 0 0 -0.874476
0.89 0.01 0 0 0 -0.783095
0.9 0.01 0 0 0 -0.689585
0.91 0.01 0 0 0 -0.595416
0.92 0.01 0 0 0 -0.501892
0.93 0.01 0 0 0 -0.410257
0.94 0.01 0 0 0 -0.321843
0.95 0.01 0 0 0 -0.23827
0.96 0.01 0 0 0 -0.161688
0.97 0.01 0 0 0 -0.0950307
0.98 0.01 0 0 0 -0.0421645
0.99 0.01 0 0 0 -0.0075928
1 0.01 0 0 0 0.00525741
0 0.02 0 0 0.00525741 0
0.01 0.02 0 0 0 -0.00151811
0.02 0.02 4.582e-05 -4.58529e-05 7.59054e-08 -0.0152984
0.03 0.02 0.000205489 -0.000115518 9.17057e-07 -0.0290371
0.04 0.02 0.000454042 -0.000165293 2.38626e-06 -0.0467578
0.05 0.02 0.000755402 -0.000190458 4.22292e-06 -0.0679803
0.06 0.02 0.00107578 -0.000195217 6.19542e-06 -0.0908411
0.07 0.02 0.00138767 -0.000184888 8.12726e-06 -0.113329
0.08 0.02 0.00167035 -0.000164133 9.89318e-06 -0.133715
0.09 0.02 0.00190924 -0.000136706 1.14099e-05 -0.150656
0.1 0.02 0.00209488 -0.000105518 1.26273e-05 -0.163186
0.11 0.02 0.0022219 -7.27403e-05 1.35203e-05 -0.170664
0.12 0.02 0.002288 -3.98945e-05 1.40821e-05 -0.1727
0.13 0.02 0.00229297 -7.93557e-06 1.43182e-05 -0.169096
0.14 0.02 0.00223788 2.26675e-05 1.42408e-05 -0.159773
0.15 0.02 0.00212434 5.18464e-05 1.38648e-05 -0.144721
0.16 0.02 0.00195389 7.98438e-05 1.32039e-05 -0.12395
0.17 0.02 0.00172759 0.000107121 1.2268e-05 -0.0974525
0.18 0.02 0.00144566 0.00013427 1.10615e-05 -0.0651787
0.19 0.02 0.00110741 0.000161924 9.58257e-06 -0.0270237
0.2 0.02 0.000711152 0.000190697 7.82298e-06 0.017177
0.21 0.02 0.000254335 0.000221118 5.76863e-06 0.0676419
0.22 0.02 -0.000266294 0.000253597 3.40063e-06 0.124631
0.23 0.02 -0.000854458 0.000288406 6.96689e-07 0.188428
0.24 0.02 -0.00151409 0.000325668 -2.36749e-06 0.259318
0.25 0.02 -0.00224907 0.000365364 -5.81668e-06 0.337569
0.26 0.02 -0.00306297 0.00040734 -9.67477e-06 0.423404
0.27 0.02 -0.00395882 0.00045132 -1.39635e-05 0.516984
0.28 0.02 -0.00493888 0.000496922 -1.87012e-05 0.618383
0.29 0.02 -0.00600448 0.000543658 -2.39019e-05 0.727575
0.3 0.02 -0.0071558 0.000590949 -2.95743e-05 0.844414
0.31 0.02 -0.00839172 0.000638125 -3.57209e-05 0.96862
0.32 0.02 -0.00970971 0.000684428 -4.23368e-05 1.09977
0.33 0.02 -0.0111056 0.000729023 -4.94095e-05 1.23729
0.34 0.02 -0.0125737 0.000770997 -5.69173e-05 1.38044
0.35 0.02 -0.0141064 0.000809378 -6.48294e-05 1.52833
0.36 0.02 -0.0156944 0.00084314 -7.31049e-05 1.67989
0.37 0.02 -0.0173263 0.000871226 -8.16922e-05 1.83392
0.38 0.02 -0.0189894 0.000892566 -9.05294e-05 1.98905
0.39 0.02 -0.0206686 0.0009061 -9.95436e-05 2.14379
0.4 0.02 -0.0223478 0.000910801 -0.000108651 2.29654
0.41 0.02 -0.0240089 0.000905704 -0.00011776 2.44557
0.42 0.02 -0.0256329 0.000889933 -0.000126766 2.58913
0.43 0.02 -0.0271993 0.000862726 -0.000135558 2.72539
0.44 0.02 -0.0286872 0.000823467 -0.00014402 2.85251
0.45 0.02 -0.0300752 0.00077171 -0.000152028 2.96867
0.46 0.02 -0.0313414 0.000707206 -0.000159454 3.07211
0.47 0.02 -0.0324647 0.000629928 -0.000166172 3.16113
0.48 0.02 -0.0334241 0.00054009 -0.000172053 3.23416
0.49 0.02 -0.0342001 0.000438171 -0.000176974 3.28977
0.5 0.02 -0.0347744 0.000324923 -0.000180816 3.32669
0.51 0.02 -0.0351307 0.00020139 -0.000183472 3.34387
0.52 0.02 -0.0352551 6.89069e-05 -0.000184844 3.34047
0.53 0.02 -0.0351362 -7.09012e-05 -0.00018485 3.31593
0.54 0.02 -0.034766 -0.000216126 -0.000183426 3.26993
0.55 0.02 -0.0341397 -0.000364597 -0.000180528 3.20244
0.56 0.02 -0.0332567 -0.000513907 -0.000176134 3.11374
0.57 0.02 -0.0321199 -0.000661457 -0.00017025 3.00439
0.58 0.02 -0.0307368 -0.000804502 -0.000162905 2.87526
0.59 0.02 -0.0291192 -0.000940216 -0.00015416 2.72752
0.6 0.02 -0.0272831 -0.00106577 -0.000144101 2.56264
0.61 0.02 -0.0252488 -0.0011784 -0.000132844 2.38233
0.62 0.02 -0.0230406 -0.00127551 -0.000120533 2.18859
0.63 0.02 -0.0206864 -0.00135479 -0.000107334 1.98363
0.64 0.02 -0.0182174 -0.00141424 -9.3437e-05 1.76983
0.65 0.02 -0.0156673 -0.00145233 -7.90491e-05 1.54978
0.66 0.02 -0.0130719 -0.00146804 -6.43904e-05 1.32613
0.67 0.02 -0.0104677 -0.00146093 -4.96884e-05 1.10164
0.68 0.02 -0.00789201 -0.00143118 -3.51719e-05 0.879058
0.69 0.02 -0.00538101 -0.0013796 -2.10648e-05 0.661126
0.7 0.02 -0.0029695 -0.00130764 -7.57984e-06 0.450475
0.71 0.02 -0.000689731 -0.0012173 5.08792e-06 0.249599
0.72 0.02 0.00142935 -0.00111112 1.67662e-05 0.0607945
0.73 0.02 0.00336288 -0.000992027 2.73103e-05 -0.113895
0.74 0.02 0.00509065 -0.000863266 3.66068e-05 -0.272718
0.75 0.02 0.00659752 -0.000728236 4.45756e-05 -0.414261
0.76 0.02 0.00787372 -0.000590373 5.11715e-05 -0.537471
0.77 0.02 0.00891486 -0.000453004 5.63831e-05 -0.64168
0.78 0.02 0.00972183 -0.000319229 6.02316e-05 -0.726609
0.79 0.02 0.0103004 -0.000191808 6.27677e-05 -0.792365
0.8 0.02 0.0106608 -7.30773e-05 6.40678e-05 -0.839417
0.81 0.02 0.010817 3.51144e-05 6.42292e-05 -0.868569
0.82 0.02 0.0107862 0.000131436 6.33655e-05 -0.880918
0.83 0.02 0.0105876 0.00021508 6.16005e-05 -0.877801
0.84 0.02 0.0102422 0.000285747 5.90639e-05 -0.860737
0.85 0.02 0.00977119 0.000343596 5.58856e-05 -0.831373
0.86 0.02 0.00919612 0.00038919 5.2192e-05 -0.791419
0.87 0.02 0.00853758 0.000423408 4.81018e-05 -0.7426
0.88 0.02 0.00781498 0.000447352 4.37238e-05 -0.68661
0.89 0.02 0.00704618 0.000462227 3.91548e-05 -0.625076
0.9 0.02 0.00624734 0.000469199 3.44793e-05 -0.559552
0.91 0.02 0.00543305 0.000469235 2.97708e-05 -0.491517
0.92 0.02 0.00461676 0.000462897 2.50946e-05 -0.422406
0.93 0.02 0.00381153 0.000450121 2.05128e-05 -0.353659
0.94 0.02 0.00303106 0.000429968 1.60922e-05 -0.286788
0.95 0.02 0.0022911 0.000400389 1.19135e-05 -0.223446
0.96 0.02 0.00161098 0.000358098 8.08438e-06 -0.165471
0.97 0.02 0.00101481 0.000298808 4.75153e-06 -0.114826
0.98 0.02 0.000531683 0.000218595 2.10822e-06 -0.0733195
0.99 0.02 0.000192618 0.000118555 3.7964e-07 -0.0417916
1 0.02 1.99827e-05 1.8982e-05 -2.62871e-07 -0.0183078
0 0.03 0 0 -0.00799307 0
0.01 0.03 0 0 0 -0.018328
0.02 0.03 0.000115801 -0.000205489 9.164e-07 -0.0291201
0.03 0.03 0.000409255 -0.000408222 4.10978e-06 -0.0357736
0.04 0.03 0.000828558 -0.000549913 9.08084e-06 -0.0423813
0.05 0.03 0.00131981 -0.000621739 1.5108e-05 -0.0500633
0.06 0.03 0.00183278 -0.000632268 2.15156e-05 -0.0584543
0.07 0.03 0.00232484 -0.00059457 2.77534e-05 -0.066603
0.08 0.03 0.00276231 -0.000521568 3.3407e-05 -0.0734254
0.09 0.03 0.00312027 -0.000424528 3.81848e-05 -0.0779075
0.1 0.03 0.00338155 -0.000312666 4.18976e-05 -0.0791809
0.11 0.03 0.00353541 -0.000193119 4.44381e-05 -0.0765388
0.12 0.03 0.00357604 -7.1063e-05 4.576e-05 -0.0694245
0.13 0.03 0.00350122 5.01218e-05 4.58594e-05 -0.0574077
0.14 0.03 0.00331092 0.000168632 4.47576e-05 -0.040158
0.15 0.03 0.00300618 0.000283987 4.24867e-05 -0.0174178
0.16 0.03 0.00258815 0.000396751 3.90778e-05 0.0110219
0.17 0.03 0.00205729 0.00050823 3.45517e-05 0.0453412
0.18 0.03 0.00141298 0.000620177 2.89132e-05 0.0857058
0.19 0.03 0.000653186 0.00073451 2.21482e-05 0.132276
0.2 0.03 -0.000225494 0.000853075 1.4223e-05 0.185212
0.21 0.03 -0.00122772 0.000977446 5.0867e-06 0.244667
0.22 0.03 -0.00235905 0.00110879 -5.32589e-06 0.310787
0.23 0.03 -0.00362559 0.0012478 -1.70892e-05 0.383694
0.24 0.03 -0.00503346 0.00139461 -3.02818e-05 0.463476
0.25 0.03 -0.00658839 0.00154888 -4.49814e-05 0.550169
0.26 0.03 -0.00829521 0.00170975 -6.12594e-05 0.643739
0.27 0.03 -0.0101574 0.00187591 -7.91763e-05 0.744069
0.28 0.03 -0.0121768 0.00204566 -9.87776e-05 0.850935
0.29 0.03 -0.0143531 0.00221691 -0.00012009 0.964001
0.3 0.03 -0.0166836 0.00238724 -0.000143116 1.0828
0.31 0.03 -0.019163 0.00255391 -0.000167834 1.20674
0.32 0.03 -0.0217831 0.00271392 -0.000194194 1.33507
0.33 0.03 -0.0245328 0.00286402 -0.000222113 1.46692
0.34 0.03 -0.0273976 0.00300078 -0.000251475 1.6013
0.35 0.03 -0.03036 0.00312063 -0.000282129 1.73706
0.36 0.03 -0.0333991 0.00321991 -0.000313887 1.87298
0.37 0.03 -0.0364912 0.00329499 -0.000346527 2.00774
0.38 0.03 -0.0396093 0.0033423 -0.000379787 2.13996
0.39 0.03 -0.0427241 0.00335844 -0.000413373 2.2682
0.4 0.03 -0.0458036 0.00334029 -0.000446956 2.39102
0.41 0.03 -0.0488141 0.00328505 -0.000480179 2.507
0.42 0.03 -0.0517204 0.00319036 -0.000512657 2.61474
0.43 0.03 -0.054486 0.00305438 -0.000543986 2.71293
0.44 0.03 -0.0570742 0.00287586 -0.000573745 2.80034
0.45 0.03 -0.0594485 0.00265419 -0.000601503 2.87586
0.46 0.03 -0.061573 0.0023895 -0.000626829 2.93851
0.47 0.03 -0.0634133 0.00208268 -0.000649293 2.98746
0.48 0.03 -0.0649368 0.00173544 -0.000668482 3.02207
0.49 0.03 -0.0661137 0.00135029 -0.000684002 3.04184
0.5 0.03 -0.0669175 0.000930618 -0.000695488 3.04646
0.51 0.03 -0.0673252 0.000480657 -0.000702615 3.0358
0.52 0.03 -0.0673185 5.46302e-06 -0.000705101 3.0099
0.53 0.03 -0.0668836 -0.000489107 -0.000702724 2.96897
0.54 0.03 -0.0660122 -0.000996453 -0.000695319 2.91337
0.55 0.03 -0.0647016 -0.00150931 -0.000682795 2.84361
0.56 0.03 -0.0629552 -0.00201986 -0.000665133 2.76033
0.57 0.03 -0.0607826 -0.00251982 -0.000642398 2.66431
0.58 0.03 -0.0581997 -0.00300065 -0.000614737 2.55639
0.59 0.03 -0.0552288 -0.00345369 -0.000582385 2.43756
0.6 0.03 -0.0518985 -0.0038704 -0.000545663 2.30883
0.61 0.03 -0.0482437 -0.00424253 -0.000504977 2.1713
0.62 0.03 -0.0443046 -0.00456241 -0.000460812 2.02614
0.63 0.03 -0.040127 -0.0048232 -0.000413728 1.87455
0.64 0.03 -0.0357611 -0.00501909 -0.000364348 1.71777
0.65 0.03 -0.0312606 -0.00514556 -0.000313347 1.55709
0.66 0.03 -0.0266823 -0.00519959 -0.000261437 1.3938
0.67 0.03 -0.0220846 -0.00517984 -0.000209355 1.22926
0.68 0.03 -0.0175262 -0.00508672 -0.00015784 1.06483
0.69 0.03 -0.0130655 -0.00492251 -0.00010762 0.901886
0.7 0.03 -0.00875838 -0.00469127 -5.93899e-05 0.741825
0.71 0.03 -0.00465777 -0.00439885 -1.37945e-05 0.586042
0.72 0.03 -0.000811905 -0.00405261 2.85872e-05 0.435912
0.73 0.03 0.00273663 -0.00366129 6.72578e-05 0.292779
0.74 0.03 0.00595188 -0.00323463 0.000101813 0.157927
0.75 0.03 0.00880537 -0.00278307 0.00013195 0.0325569
0.76 0.03 0.0112766 -0.00231734 0.000157474 -0.0822471
0.77 0.03 0.0133533 -0.0018481 0.000178297 -0.185545
0.78 0.03 0.0150317 -0.00138553 0.000194437 -0.276569
0.79 0.03 0.016316 -0.000938961 0.000206008 -0.354755
0.8 0.03 0.0172177 -0.000516635 0.000213216 -0.419755
0.81 0.03 0.0177555 -0.000125408 0.000216341 -0.47146
0.82 0.03 0.0179536 0.000229391 0.000215724 -0.509995
0.83 0.03 0.0178408 0.000544045 0.000211753 -0.53572
0.84 0.03 0.0174495 0.000816451 0.000204843 -0.549217
0.85 0.03 0.0168143 0.00104604 0.000195424 -0.551264
0.86 0.03 0.0159705 0.00123362 0.000183922 -0.542808
0.87 0.03 0.0149537 0.00138114 0.000170752 -0.524938
0.88 0.03 0.0137981 0.0014914 0.0001563 -0.498854
0.89 0.03 0.0125361 0.00156764 0.000140924 -0.465839
0.9 0.03 0.0111984 0.00161313 0.000124947 -0.427242
0.91 0.03 0.00981338 0.00163057 0.000108661 -0.384474
0.92 0.03 0.008408 0.00162152 9.23353e-05 -0.338997
0.93 0.03 0.00700868 0.00158571 7.62305e-05 -0.292335
0.94 0.03 0.00564271 0.00152042 6.06211e-05 -0.246067
0.95 0.03 0.00434 0.00142008 4.58221e-05 -0.201794
0.96 0.03 0.00313479 0.00127629 3.22195e-05 -0.161046
0.97 0.03 0.00206673 0.00107929 2.02962e-05 -0.125062
0.98 0.03 0.00118028 0.000822191 1.06337e-05 -0.0943584
0.99 0.03 0.00052049 0.000511701 3.85237e-06 -0.0679292
1 0.03 0.000123369 0.000192618 3.99654e-07 -0.041954
0 0.04 0 0 -0.0440904 0
0.01 0.04 0 0 0 -0.0478385
0.02 0.04 0.000166927 -0.000455108 2.39193e-06 -0.0470579
0.03 0.04 0.000554764 -0.000828275 9.10216e-06 -0.0425554
0.04 0.04 0.00108242 -0.00107585 1.89574e-05 -0.0370167
0.05 0.04 0.00168088 -0.00119468 3.06191e-05 -0.0316562
0.06 0.04 0.00228981 -0.00120024 4.28511e-05 -0.0266643
0.07 0.04 0.00285819 -0.00111441 5.4624e-05 -0.0216494
0.08 0.04 0.0033449 -0.000959564 6.51393e-05 -0.0159396
0.09 0.04 0.0037185 -0.000755952 7.38153e-05 -0.00875913
0.1 0.04 0.00395635 -0.000520654 8.02584e-05 0.000675772
0.11 0.04 0.00404326 -0.000267225 8.42284e-05 0.0131086
0.12 0.04 0.00396994 -5.70441e-06 8.56029e-05 0.0292192
0.13 0.04 0.00373139 0.000257186 8.43425e-05 0.0496146
0.14 0.04 0.0033254 0.0005177 8.04592e-05 0.0748261
0.15 0.04 0.00275118 0.00077462 7.39885e-05 0.10531
0.16 0.04 0.0020082 0.00102874 6.49668e-05 0.141453
0.17 0.04 0.00109533 0.00128229 5.34138e-05 0.183572
0.18 0.04 1.02717e-05 0.00153837 3.9321e-05 0.23192
0.19 0.04 -0.00125071 0.00180039 2.26463e-05 0.286689
0.2 0.04 -0.00269277 0.0020716 3.3131e-06 0.348011
0.21 0.04 -0.00432224 0.00235467 -1.87857e-05 0.41596
0.22 0.04 -0.00614617 0.00265147 -4.37804e-05 0.490544
0.23 0.04 -0.00817178 0.00296282 -7.18151e-05 0.571709
0.24 0.04 -0.0104058 0.00328848 -0.000103037 0.659322
0.25 0.04 -0.0128539 0.00362711 -0.000137585 0.753171
0.26 0.04 -0.0155198 0.00397635 -0.000175579 0.852947
0.27 0.04 -0.0184051 0.0043329 -0.000217112 0.958233
0.28 0.04 -0.0215084 0.00469257 -0.000262237 1.0685
0.29 0.04 -0.0248251 0.00505042 -0.000310963 1.1831
0.3 0.04 -0.0283466 0.00540086 -0.000363246 1.30126
0.31 0.04 -0.0320608 0.0057377 -0.00041898 1.42207
0.32 0.04 -0.0359509 0.00605426 -0.000478 1.54454
0.33 0.04 -0.0399961 0.00634351 -0.000540066 1.66754
0.34 0.04 -0.0441712 0.00659817 -0.00060487 1.7899
0.35 0.04 -0.0484469 0.00681088 -0.000672029 1.91035
0.36 0.04 -0.0527897 0.00697431 -0.000741087 2.02763
0.37 0.04 -0.0571626 0.0070814 -0.000811516 2.14046
0.38 0.04 -0.0615253 0.00712546 -0.000882716 2.24758
0.39 0.04 -0.0658348 0.0071004 -0.000954025 2.34782
0.4 0.04 -0.0700461 0.00700087 -0.00102472 2.44006
0.41 0.04 -0.0741125 0.00682245 -0.00109404 2.52334
0.42 0.04 -0.0779867 0.00656175 -0.00116117 2.59678
0.43 0.04 -0.0816215 0.00621658 -0.00122528 2.6597
0.44 0.04 -0.0849704 0.00578602 -0.0012855 2.71155
0.45 0.04 -0.0879882 0.00527051 -0.001341 2.75197
0.46 0.04 -0.0906321 0.00467196 -0.00139091 2.78076
0.47 0.04 -0.0928623 0.00399369 -0.00143444 2.79787
0.48 0.04 -0.0946423 0.00324056 -0.00147079 2.80342
0.49 0.04 -0.0959401 0.00241888 -0.00149925 2.79768
0.5 0.04 -0.0967282 0.00153642 -0.00151917 2.781
0.51 0.04 -0.0969843 0.000602358 -0.00152998 2.75387
0.52 0.04 -0.0966919 -0.000372774 -0.00153121 2.71685
0.53 0.04 -0.0958405 -0.00137722 -0.00152252 2.67054
0.54 0.04 -0.0944259 -0.00239808 -0.00150367 2.6156
0.55 0.04 -0.0924506 -0.00342152 -0.00147456 2.5527
0.56 0.04 -0.0899239 -0.0044329 -0.00143524 2.4825
0.57 0.04 -0.0868619 -0.00541701 -0.0013859 2.40563
0.58 0.04 -0.0832879 -0.00635834 -0.0013269 2.32273
0.59 0.04 -0.0792319 -0.00724136 -0.00125874 2.23436
0.6 0.04 -0.0747306 -0.00805087 -0.00118207 2.14105
0.61 0.04 -0.0698275 -0.0087723 -0.00109772 2.04329
0.62 0.04 -0.0645717 -0.00939216 -0.00100663 1.9415
0.63 0.04 -0.0590184 -0.00989836 -0.000909874 1.8361
0.64 0.04 -0.0532273 -0.0102807 -0.000808658 1.72745
0.65 0.04 -0.0472624 -0.0105311 -0.000704261 1.61593
0.66 0.04 -0.041191 -0.0106441 -0.000598036 1.5019
0.67 0.04 -0.0350825 -0.010617 -0.000491379 1.38575
0.68 0.04 -0.0290071 -0.0104503 -0.000385696 1.26791
0.69 0.04 -0.0230349 -0.0101474 -0.000282374 1.14886
0.7 0.04 -0.0172342 -0.00971533 -0.000182747 1.02916
0.71 0.04 -0.0116703 -0.00916377 -8.80673e-05 0.90944
0.72 0.04 -0.00640402 -0.00850551 5.2824e-07 0.790437
0.73 0.04 -0.00149062 -0.00775581 8.20429e-05 0.672961
0.74 0.04 0.00302175 -0.006932 0.000155645 0.557912
0.75 0.04 0.0070929 -0.00605293 0.000220683 0.446259
0.76 0.04 0.0106915 -0.00513834 0.000276703 0.339016
0.77 0.04 0.0137957 -0.00420815 0.00032345 0.237221
0.78 0.04 0.0163933 -0.00328186 0.000360866 0.141897
0.79 0.04 0.0184821 -0.0023778 0.000389087 0.0540149
0.8 0.04 0.0200693 -0.00151262 0.000408423 -0.0255413
0.81 0.04 0.021171 -0.000700697 0.00041934 -0.0960171
0.82 0.04 0.0218112 4.61911e-05 0.000422437 -0.15682
0.83 0.04 0.0220211 0.000719148 0.000418416 -0.207546
0.84 0.04 0.0218371 0.00131226 0.000408054 -0.248004
0.85 0.04 0.0213001 0.00182254 0.000392171 -0.278225
0.86 0.04 0.0204533 0.00224973 0.000371603 -0.298468
0.87 0.04 0.0193418 0.0025959 0.000347176 -0.309212
0.88 0.04 0.0180101 0.00286495 0.000319685 -0.311153
0.89 0.04 0.0165024 0.00306188 0.000289877 -0.305186
0.9 0.04 0.014861 0.00319194 0.000258447 -0.292396
0.91 0.04 0.0131267 0.00325964 0.000226038 -0.274036
0.92 0.04 0.0113387 0.0032676 0.000193255 -0.251513
0.93 0.04 0.00953594 0.00321541 0.000160686 -0.226352
0.94 0.04 0.00775786 0.00309865 0.000128946 -0.200138
0.95 0.04 0.00604629 0.00290831 9.87135e-05 -0.174424
0.96 0.04 0.00444688 0.00263136 7.07801e-05 -0.150558
0.97 0.04 0.00300998 0.00225332 4.60862e-05 -0.129409
0.98 0.04 0.0017903 0.00176484 2.57137e-05 -0.11094
0.99 0.04 0.000844782 0.00117546 1.07894e-05 -0.0936091
1 0.04 0.000229479 0.000539472 2.20452e-06 -0.0736024
0 0.05 0 0 -0.0997845 0
0.01 0.05 0 0 0 -0.0850987
0.02 0.05 0.000194659 -0.000760253 4.25494e-06 -0.0686236
0.03 0.05 0.000633014 -0.00132372 1.52051e-05 -0.0502854
0.04 0.05 0.00121094 -0.00167603 3.07293e-05 -0.0314736
0.05 0.05 0.00184624 -0.00182913 4.87256e-05 -0.013015
0.06 0.05 0.00247094 -0.00180958 6.73119e-05 0.00483744
0.07 0.05 0.00302887 -0.00164965 8.49173e-05 0.0222673
0.08 0.05 0.00347472 -0.00138187 0.000100305 0.0397482
0.09 0.05 0.00377328 -0.00103598 0.000112555 0.0579303
0.1 0.05 0.00389839 -0.000637433 0.000121025 0.0775591
0.11 0.05 0.00383157 -0.000206706 0.000125303 0.0994201
0.12 0.05 0.00356046 0.000240815 0.000125159 0.124297
0.13 0.05 0.00307725 0.000694662 0.000120487 0.152942
0.14 0.05 0.00237708 0.00114884 0.000111266 0.186049
0.15 0.05 0.00145668 0.00160119 9.75104e-05 0.224233
0.16 0.05 0.00031317 0.0020526 7.92418e-05 0.268017
0.17 0.05 -0.00105682 0.00250616 5.64583e-05 0.317816
0.18 0.05 -0.00265766 0.00296622 2.91187e-05 0.373936
0.19 0.05 -0.00449495 0.00343755 -2.86599e-06 0.436562
0.2 0.05 -0.00657541 0.00392461 -3.96324e-05 0.505766
0.21 0.05 -0.00890648 0.00443085 -8.13581e-05 0.581502
0.22 0.05 -0.0114958 0.00495833 -0.000128249 0.663614
0.23 0.05 -0.0143503 0.00550742 -0.000180525 0.751833
0.24 0.05 -0.0174756 0.00607668 -0.000238398 0.84578
0.25 0.05 -0.0208754 0.00666285 -0.000302058 0.944965
0.26 0.05 -0.0245502 0.00726098 -0.000371655 1.04878
0.27 0.05 -0.028497 0.00786454 -0.000447278 1.15652
0.28 0.05 -0.0327087 0.00846563 -0.000528946 1.26733
0.29 0.05 -0.0371735 0.00905514 -0.000616591 1.38027
0.3 0.05 -0.0418747 0.00962295 -0.000710049 1.4943
0.31 0.05 -0.0467904 0.0101582 -0.00080905 1.60829
0.32 0.05 -0.0518934 0.0106492 -0.000913212 1.72103
0.33 0.05 -0.0571514 0.0110844 -0.00102203 1.83131
0.34 0.05 -0.0625272 0.0114516 -0.0011349 1.93787
0.35 0.05 -0.067979 0.0117391 -0.00125107 2.03953
0.36 0.05 -0.0734609 0.0119356 -0.00136968 2.13514
0.37 0.05 -0.0789237 0.0120306 -0.00148978 2.22365
0.38 0.05 -0.0843154 0.0120145 -0.00161029 2.30415
0.39 0.05 -0.0895823 0.0118792 -0.00173007 2.37589
0.4 0.05 -0.0946696 0.0116179 -0.00184788 2.43826
0.41 0.05 -0.0995224 0.0112257 -0.00196243 2.49088
0.42 0.05 -0.104086 0.0106994 -0.00207239 2.53351
0.43 0.05 -0.108309 0.010038 -0.00217642 2.56613
0.44 0.05 -0.11214 0.00924247 -0.00227315 2.58888
0.45 0.05 -0.115533 0.00831592 -0.00236127 2.60206
0.46 0.05 -0.118443 0.0072636 -0.00243947 2.60612
0.47 0.05 -0.120832 0.00609291 -0.00250654 2.6016
0.48 0.05 -0.122666 0.00481328 -0.00256133 2.58916
0.49 0.05 -0.123914 0.00343612 -0.0026028 2.56949
0.5 0.05 -0.124555 0.00197478 -0.00263005 2.54331
0.51 0.05 -0.12457 0.000444364 -0.0026423 2.51137
0.52 0.05 -0.123947 -0.00113836 -0.00263894 2.47436
0.53 0.05 -0.12268 -0.00275513 -0.00261953 2.43295
0.54 0.05 -0.120772 -0.00438635 -0.00258384 2.38774
0.55 0.05 -0.118229 -0.00601134 -0.00253181 2.33925
0.56 0.05 -0.115066 -0.00760853 -0.00246361 2.28791
0.57 0.05 -0.111302 -0.00915579 -0.00237964 2.23405
0.58 0.05 -0.106966 -0.0106307 -0.00228049 2.1779
0.59 0.05 -0.10209 -0.012011 -0.00216702 2.1196
0.6 0.05 -0.0967164 -0.0132748 -0.00204028 2.05918
0.61 0.05 -0.0908904 -0.0144014 -0.00190153 1.99662
0.62 0.05 -0.0846647 -0.0153715 -0.00175225 1.9318
0.63 0.05 -0.0780974 -0.0161677 -0.0015941 1.86454
0.64 0.05 -0.0712516 -0.016775 -0.00142889 1.79465
0.65 0.05 -0.0641948 -0.0171818 -0.00125859 1.7219
0.66 0.05 -0.0569984 -0.0173795 -0.00108526 1.6461
0.67 0.05 -0.0497362 -0.0173638 -0.000911005 1.56704
0.68 0.05 -0.0424838 -0.0171343 -0.000737982 1.48462
0.69 0.05 -0.0353172 -0.0166954 -0.000568318 1.39877
0.7 0.05 -0.0283118 -0.0160559 -0.000404073 1.30955
0.71 0.05 -0.0215405 -0.015229 -0.000247199 1.21714
0.72 0.05 -0.0150729 -0.0142322 -9.94931e-05 1.12183
0.73 0.05 -0.00897338 -0.0130871 3.74455e-05 1.02409
0.74 0.05 -0.00330005 -0.0118181 0.000162248 0.924507
0.75 0.05 0.0018966 -0.0104528 0.000273809 0.823838
0.76 0.05 0.00657477 -0.0090201 0.000371305 0.722969
0.77 0.05 0.0107023 -0.0075499 0.000454211 0.622908
0.78 0.05 0.0142571 -0.00607198 0.000522303 0.524753
0.79 0.05 0.0172278 -0.00461497 0.00057565 0.429659
0.8 0.05 0.0196136 -0.0032055 0.000614602 0.338799
0.81 0.05 0.021424 -0.00186734 0.000639761 0.253316
0.82 0.05 0.022678 -0.000620718 0.000651949 0.174274
0.83 0.05 0.0234036 0.000518175 0.000652175 0.102616
0.84 0.05 0.0236362 0.0015375 0.000641586 0.039115
0.85 0.05 0.0234175 0.00242982 0.000621425 -0.0156604
0.86 0.05 0.0227939 0.00319193 0.000592989 -0.0613803
0.87 0.05 0.021815 0.00382437 0.000557587 -0.0979751
0.88 0.05 0.0205323 0.00433075 0.000516502 -0.125651
0.89 0.05 0.0189976 0.00471676 0.000470972 -0.144897
0.9 0.05 0.0172627 0.00498886 0.000422167 -0.156482
0.91 0.05 0.0153784 0.00515286 0.000371194 -0.161444
0.92 0.05 0.0133946 0.00521225 0.00031911 -0.161059
0.93 0.05 0.0113608 0.00516657 0.000266949 -0.156792
0.94 0.05 0.0093272 0.00501008 0.000215778 -0.15021
0.95 0.05 0.00734571 0.00473106 0.000166748 -0.142851
0.96 0.05 0.00547135 0.00431261 0.000121157 -0.136025
0.97 0.05 0.00376338 0.00373587 8.04957e-05 -0.130539
0.98 0.05 0.00228609 0.00298738 4.64396e-05 -0.126345
0.99 0.05 0.00110985 0.00207252 2.0748e-05 -0.122126
1 0.05 0.000314472 0.0010374 4.98923e-06 -0.114896
0 0.06 0 0 -0.169879 0
0.01 0.06 0 0 0 -0.125702
0.02 0.06 0.000202647 -0.00108812 6.28511e-06 -0.0918482
0.03 0.06 0.000650256 -0.00184456 2.17625e-05 -0.0582677
0.04 0.06 0.00122425 -0.00228907 4.31762e-05 -0.0254485
0.05 0.06 0.0018328 -0.00245468 6.75439e-05 0.00622112
0.06 0.06 0.0024024 -0.00238288 9.22699e-05 0.036625
0.07 0.06 0.00287369 -0.00211819 0.000115201 0.0659392
0.08 0.06 0.00319918 -0.00170398 0.000134634 0.094591
0.09 0.06 0.00334171 -0.00117963 0.000149281 0.123203
0.1 0.06 0.00327308 -0.000578939 0.000158226 0.152535
0.11 0.06 0.00297253 7.07093e-05 0.00016086 0.183435
0.12 0.06 0.00242525 0.000748619 0.000156812 0.216787
0.13 0.06 0.0016208 0.00144057 0.000145887 0.253467
0.14 0.06 0.000551614 0.00213826 0.000128001 0.294303
0.15 0.06 -0.000788306 0.00283853 0.000103122 0.340032
0.16 0.06 -0.00240449 0.00354224 7.12302e-05 0.391275
0.17 0.06 -0.00430276 0.00425312 3.22774e-05 0.448501
0.18 0.06 -0.00648964 0.00497651 -1.38322e-05 0.512021
0.19 0.06 -0.00897244 0.00571815 -6.72527e-05 0.581971
0.2 0.06 -0.0117589 0.00648313 -0.000128195 0.658312
0.21 0.06 -0.0148569 0.00727502 -0.000196915 0.740838
0.22 0.06 -0.0182733 0.00809524 -0.000273696 0.829182
0.23 0.06 -0.0220134 0.0089427 -0.00035882 0.922827
0.24 0.06 -0.0260801 0.00981363 -0.00045255 1.02112
0.25 0.06 -0.0304725 0.0107017 -0.000555093 1.12327
0.26 0.06 -0.0351857 0.0115979 -0.000666583 1.22837
0.27 0.06 -0.0402099 0.0124914 -0.000787052 1.33541
0.28 0.06 -0.0455298 0.0133691 -0.00091641 1.44329
0.29 0.06 -0.0511241 0.0142164 -0.00105443 1.55082
0.3 0.06 -0.0569657 0.0150177 -0.00120074 1.65676
0.31 0.06 -0.0630215 0.0157564 -0.00135479 1.75986
0.32 0.06 -0.0692525 0.0164153 -0.00151587 1.85887
0.33 0.06 -0.0756143 0.0169773 -0.00168309 1.95261
0.34 0.06 -0.0820577 0.0174257 -0.00185541 2.03999
0.35 0.06 -0.0885294 0.0177445 -0.00203161 2.12003
0.36 0.06 -0.0949727 0.017919 -0.00221031 2.19192
0.37 0.06 -0.101329 0.0179359 -0.00238999 2.25505
0.38 0.06 -0.107538 0.0177841 -0.00256902 2.30901
0.39 0.06 -0.113538 0.0174546 -0.00274567 2.35359
0.4 0.06 -0.119272 0.0169409 -0.00291812 2.38883
0.41 0.06 -0.124679 0.0162392 -0.00308449 2.41492
0.42 0.06 -0.129705 0.0153485 -0.0032429 2.43229
0.43 0.06 -0.134297 0.0142704 -0.00339146 2.44149
0.44 0.06 -0.138407 0.0130096 -0.00352831 2.44322
0.45 0.06 -0.141991 0.0115733 -0.00365165 2.43827
0.46 0.06 -0.145009 0.00997135 -0.00375978 2.42749
0.47 0.06 -0.147427 0.00821629 -0.00385108 2.41175
0.48 0.06 -0.149216 0.00632292 -0.0039241 2.39192
0.49 0.06 -0.150353 0.00430831 -0.00397754 2.36884
0.5 0.06 -0.150819 0.00219162 -0.00401027 2.34327
0.51 0.06 -0.150603 -6.0951e-06 -0.00402137 2.3159
0.52 0.06 -0.149697 -0.00226199 -0.00401015 2.28731
0.53 0.06 -0.1481 -0.00455167 -0.00397613 2.25798
0.54 0.06 -0.145816 -0.00684936 -0.00391911 2.22824
0.55 0.06 -0.142857 -0.00912813 -0.00383914 2.19832
0.56 0.06 -0.139236 -0.0113601 -0.00373655 2.16832
0.57 0.06 -0.134978 -0.013517 -0.00361194 2.13821
0.58 0.06 -0.130108 -0.01557 -0.00346621 2.10785
0.59 0.06 -0.124661 -0.0174905 -0.00330054 2.07699
0.6 0.06 -0.118676 -0.0192508 -0.0031164 2.04529
0.61 0.06 -0.112198 -0.0208241 -0.00291553 2.01234
0.62 0.06 -0.10528 -0.0221852 -0.00269992 1.97766
0.63 0.06 -0.0979779 -0.0233115 -0.00247182 1.94071
0.64 0.06 -0.0903543 -0.0241832 -0.00223369 1.90096
0.65 0.06 -0.0824765 -0.0247842 -0.00198816 1.85784
0.66 0.06 -0.0744162 -0.0251027 -0.001738 1.81083
0.67 0.06 -0.0662484 -0.0251316 -0.0014861 1.75942
0.68 0.06 -0.058051 -0.0248692 -0.00123537 1.7032
0.69 0.06 -0.0499032 -0.0243194 -0.000988718 1.64181
0.7 0.06 -0.0418846 -0.023492 -0.000748983 1.57504
0.71 0.06 -0.0340738 -0.0224026 -0.000518878 1.50277
0.72 0.06 -0.0265468 -0.0210726 -0.00030093 1.42506
0.73 0.06 -0.0193757 -0.0195287 -9.74244e-05 1.34212