Title=" Lid Driven Flow"
VARIABLES="X","Y","U","V","psi","xi"
ZONE T= "BOX", I= 201, J=201, F=POINT
0 0 0 0 0.00344124 0
0.005 0 0 0 0 0
0.01 0 0 0 0 0
0.015 0 0 0 0 161.891
0.02 0 0 0 0 176.121
0.025 0 0 0 0 155.598
0.03 0 0 0 0 133.203
0.035 0 0 0 0 115.679
0.04 0 0 0 0 102.821
0.045 0 0 0 0 93.2858
0.05 0 0 0 0 85.963
0.055 0 0 0 0 80.1197
0.06 0 0 0 0 75.2974
0.065 0 0 0 0 71.2071
0.07 0 0 0 0 67.661
0.075 0 0 0 0 64.5324
0.08 0 0 0 0 61.733
0.085 0 0 0 0 59.1991
0.09 0 0 0 0 56.8838
0.095 0 0 0 0 54.7519
0.1 0 0 0 0 52.7763
0.105 0 0 0 0 50.9358
0.11 0 0 0 0 49.2139
0.115 0 0 0 0 47.5971
0.12 0 0 0 0 46.0744
0.125 0 0 0 0 44.6368
0.13 0 0 0 0 43.2765
0.135 0 0 0 0 41.9872
0.14 0 0 0 0 40.7631
0.145 0 0 0 0 39.5994
0.15 0 0 0 0 38.4916
0.155 0 0 0 0 37.436
0.16 0 0 0 0 36.429
0.165 0 0 0 0 35.4674
0.17 0 0 0 0 34.5482
0.175 0 0 0 0 33.6687
0.18 0 0 0 0 32.8263
0.185 0 0 0 0 32.0189
0.19 0 0 0 0 31.244
0.195 0 0 0 0 30.4997
0.2 0 0 0 0 29.784
0.205 0 0 0 0 29.095
0.21 0 0 0 0 28.4312
0.215 0 0 0 0 27.7907
0.22 0 0 0 0 27.172
0.225 0 0 0 0 26.5738
0.23 0 0 0 0 25.9946
0.235 0 0 0 0 25.4332
0.24 0 0 0 0 24.8882
0.245 0 0 0 0 24.3585
0.25 0 0 0 0 23.8431
0.255 0 0 0 0 23.3409
0.26 0 0 0 0 22.851
0.265 0 0 0 0 22.3723
0.27 0 0 0 0 21.9042
0.275 0 0 0 0 21.4457
0.28 0 0 0 0 20.9961
0.285 0 0 0 0 20.5547
0.29 0 0 0 0 20.1209
0.295 0 0 0 0 19.6941
0.3 0 0 0 0 19.2736
0.305 0 0 0 0 18.859
0.31 0 0 0 0 18.4497
0.315 0 0 0 0 18.0454
0.32 0 0 0 0 17.6457
0.325 0 0 0 0 17.2501
0.33 0 0 0 0 16.8583
0.335 0 0 0 0 16.4701
0.34 0 0 0 0 16.0852
0.345 0 0 0 0 15.7033
0.35 0 0 0 0 15.3243
0.355 0 0 0 0 14.9479
0.36 0 0 0 0 14.5741
0.365 0 0 0 0 14.2026
0.37 0 0 0 0 13.8335
0.375 0 0 0 0 13.4667
0.38 0 0 0 0 13.1021
0.385 0 0 0 0 12.7397
0.39 0 0 0 0 12.3796
0.395 0 0 0 0 12.0217
0.4 0 0 0 0 11.6661
0.405 0 0 0 0 11.3129
0.41 0 0 0 0 10.9622
0.415 0 0 0 0 10.614
0.42 0 0 0 0 10.2685
0.425 0 0 0 0 9.92585
0.43 0 0 0 0 9.58618
0.435 0 0 0 0 9.24965
0.44 0 0 0 0 8.91644
0.445 0 0 0 0 8.58673
0.45 0 0 0 0 8.2607
0.455 0 0 0 0 7.93856
0.46 0 0 0 0 7.62051
0.465 0 0 0 0 7.30675
0.47 0 0 0 0 6.9975
0.475 0 0 0 0 6.69296
0.48 0 0 0 0 6.39334
0.485 0 0 0 0 6.09885
0.49 0 0 0 0 5.80969
0.495 0 0 0 0 5.52607
0.5 0 0 0 0 5.24816
0.505 0 0 0 0 4.97617
0.51 0 0 0 0 4.71025
0.515 0 0 0 0 4.45059
0.52 0 0 0 0 4.19732
0.525 0 0 0 0 3.95061
0.53 0 0 0 0 3.71056
0.535 0 0 0 0 3.47731
0.54 0 0 0 0 3.25095
0.545 0 0 0 0 3.03156
0.55 0 0 0 0 2.81922
0.555 0 0 0 0 2.61398
0.56 0 0 0 0 2.41587
0.565 0 0 0 0 2.22492
0.57 0 0 0 0 2.04114
0.575 0 0 0 0 1.8645
0.58 0 0 0 0 1.69499
0.585 0 0 0 0 1.53255
0.59 0 0 0 0 1.37714
0.595 0 0 0 0 1.22868
0.6 0 0 0 0 1.08708
0.605 0 0 0 0 0.952235
0.61 0 0 0 0 0.824041
0.615 0 0 0 0 0.70237
0.62 0 0 0 0 0.587088
0.625 0 0 0 0 0.478049
0.63 0 0 0 0 0.375099
0.635 0 0 0 0 0.278078
0.64 0 0 0 0 0.186816
0.645 0 0 0 0 0.10114
0.65 0 0 0 0 0.0208698
0.655 0 0 0 0 -0.0541775
0.66 0 0 0 0 -0.124188
0.665 0 0 0 0 -0.189352
0.67 0 0 0 0 -0.24986
0.675 0 0 0 0 -0.305903
0.68 0 0 0 0 -0.357675
0.685 0 0 0 0 -0.405368
0.69 0 0 0 0 -0.449175
0.695 0 0 0 0 -0.489289
0.7 0 0 0 0 -0.525902
0.705 0 0 0 0 -0.559204
0.71 0 0 0 0 -0.589384
0.715 0 0 0 0 -0.616631
0.72 0 0 0 0 -0.641131
0.725 0 0 0 0 -0.663068
0.73 0 0 0 0 -0.682622
0.735 0 0 0 0 -0.699971
0.74 0 0 0 0 -0.715288
0.745 0 0 0 0 -0.728739
0.75 0 0 0 0 -0.740486
0.755 0 0 0 0 -0.750682
0.76 0 0 0 0 -0.75947
0.765 0 0 0 0 -0.766982
0.77 0 0 0 0 -0.77334
0.775 0 0 0 0 -0.77865
0.78 0 0 0 0 -0.783005
0.785 0 0 0 0 -0.786482
0.79 0 0 0 0 -0.789138
0.795 0 0 0 0 -0.791016
0.8 0 0 0 0 -0.792138
0.805 0 0 0 0 -0.792509
0.81 0 0 0 0 -0.792115
0.815 0 0 0 0 -0.790925
0.82 0 0 0 0 -0.78889
0.825 0 0 0 0 -0.785945
0.83 0 0 0 0 -0.782013
0.835 0 0 0 0 -0.777005
0.84 0 0 0 0 -0.77082
0.845 0 0 0 0 -0.763352
0.85 0 0 0 0 -0.754492
0.855 0 0 0 0 -0.744126
0.86 0 0 0 0 -0.732147
0.865 0 0 0 0 -0.718451
0.87 0 0 0 0 -0.702945
0.875 0 0 0 0 -0.685549
0.88 0 0 0 0 -0.666197
0.885 0 0 0 0 -0.644847
0.89 0 0 0 0 -0.621477
0.895 0 0 0 0 -0.596095
0.9 0 0 0 0 -0.568736
0.905 0 0 0 0 -0.53947
0.91 0 0 0 0 -0.508399
0.915 0 0 0 0 -0.475665
0.92 0 0 0 0 -0.441447
0.925 0 0 0 0 -0.405964
0.93 0 0 0 0 -0.369476
0.935 0 0 0 0 -0.332287
0.94 0 0 0 0 -0.294739
0.945 0 0 0 0 -0.257219
0.95 0 0 0 0 -0.220154
0.955 0 0 0 0 -0.184015
0.96 0 0 0 0 -0.149311
0.965 0 0 0 0 -0.116594
0.97 0 0 0 0 -0.086453
0.975 0 0 0 0 -0.0595133
0.98 0 0 0 0 -0.0364262
0.985 0 0 0 0 -0.0178494
0.99 0 0 0 0 -0.00439739
0.995 0 0 0 0 0.00347412
1 0 0 0 0 0.00574174
0 0.005 0 0 0 0
0.005 0.005 0 0 0 0
0.01 0.005 0 0 0 73.7283
0.015 0.005 0 0 0 62.0748
0.02 0.005 0 0 0 45.7356
0.025 0.005 0 0 0 33.9743
0.03 0.005 0 0 0 26.0759
0.035 0.005 0 0 0 20.6395
0.04 0.005 0 0 0 16.7254
0.045 0.005 0 0 0 13.7839
0.05 0.005 0 0 0 11.4972
0.055 0.005 0 0 0 9.67513
0.06 0.005 0 0 0 8.19807
0.065 0.005 0 0 0 6.98656
0.07 0.005 0 0 0 5.98504
0.075 0.005 0 0 0 5.15286
0.08 0.005 0 0 0 4.45916
0.085 0.005 0 0 0 3.87987
0.09 0.005 0 0 0 3.39577
0.095 0.005 0 0 0 2.99126
0.1 0.005 0 0 0 2.65359
0.105 0.005 0 0 0 2.3722
0.11 0.005 0 0 0 2.13834
0.115 0.005 0 0 0 1.9447
0.12 0.005 0 0 0 1.78519
0.125 0.005 0 0 0 1.65472
0.13 0.005 0 0 0 1.54901
0.135 0.005 0 0 0 1.46449
0.14 0.005 0 0 0 1.39818
0.145 0.005 0 0 0 1.34756
0.15 0.005 0 0 0 1.31055
0.155 0.005 0 0 0 1.28538
0.16 0.005 0 0 0 1.27061
0.165 0.005 0 0 0 1.26499
0.17 0.005 0 0 0 1.26752
0.175 0.005 0 0 0 1.27732
0.18 0.005 0 0 0 1.29371
0.185 0.005 0 0 0 1.31606
0.19 0.005 0 0 0 1.3439
0.195 0.005 0 0 0 1.37679
0.2 0.005 0 0 0 1.4144
0.205 0.005 0 0 0 1.45642
0.21 0.005 0 0 0 1.5026
0.215 0.005 0 0 0 1.55273
0.22 0.005 0 0 0 1.60662
0.225 0.005 0 0 0 1.66411
0.23 0.005 0 0 0 1.72505
0.235 0.005 0 0 0 1.78932
0.24 0.005 0 0 0 1.8568
0.245 0.005 0 0 0 1.92738
0.25 0.005 0 0 0 2.00095
0.255 0.005 0 0 0 2.07741
0.26 0.005 0 0 0 2.15667
0.265 0.005 0 0 0 2.23863
0.27 0.005 0 0 0 2.32317
0.275 0.005 0 0 0 2.41022
0.28 0.005 0 0 0 2.49965
0.285 0.005 0 0 0 2.59136
0.29 0.005 0 0 0 2.68525
0.295 0.005 0 0 0 2.78119
0.3 0.005 0 0 0 2.87907
0.305 0.005 0 0 0 2.97876
0.31 0.005 0 0 0 3.08013
0.315 0.005 0 0 0 3.18304
0.32 0.005 0 0 0 3.28735
0.325 0.005 0 0 0 3.39292
0.33 0.005 0 0 0 3.49958
0.335 0.005 0 0 0 3.60719
0.34 0.005 0 0 0 3.71557
0.345 0.005 0 0 0 3.82456
0.35 0.005 0 0 0 3.93398
0.355 0.005 0 0 0 4.04365
0.36 0.005 0 0 0 4.15339
0.365 0.005 0 0 0 4.263
0.37 0.005 0 0 0 4.37229
0.375 0.005 0 0 0 4.48106
0.38 0.005 0 0 0 4.58912
0.385 0.005 0 0 0 4.69625
0.39 0.005 0 0 0 4.80224
0.395 0.005 0 0 0 4.90689
0.4 0.005 0 0 0 5.00999
0.405 0.005 0 0 0 5.11131
0.41 0.005 0 0 0 5.21065
0.415 0.005 0 0 0 5.30779
0.42 0.005 0 0 0 5.40251
0.425 0.005 0 0 0 5.49459
0.43 0.005 0 0 0 5.58383
0.435 0.005 0 0 0 5.67001
0.44 0.005 0 0 0 5.75291
0.445 0.005 0 0 0 5.83234
0.45 0.005 0 0 0 5.90807
0.455 0.005 0 0 0 5.97992
0.46 0.005 0 0 0 6.04769
0.465 0.005 0 0 0 6.11118
0.47 0.005 0 0 0 6.17021
0.475 0.005 0 0 0 6.22459
0.48 0.005 0 0 0 6.27416
0.485 0.005 0 0 0 6.31875
0.49 0.005 0 0 0 6.3582
0.495 0.005 0 0 0 6.39236
0.5 0.005 0 0 0 6.42109
0.505 0.005 0 0 0 6.44426
0.51 0.005 0 0 0 6.46176
0.515 0.005 0 0 0 6.47347
0.52 0.005 0 0 0 6.47929
0.525 0.005 0 0 0 6.47915
0.53 0.005 0 0 0 6.47297
0.535 0.005 0 0 0 6.4607
0.54 0.005 0 0 0 6.44228
0.545 0.005 0 0 0 6.41768
0.55 0.005 0 0 0 6.3869
0.555 0.005 0 0 0 6.34993
0.56 0.005 0 0 0 6.30679
0.565 0.005 0 0 0 6.2575
0.57 0.005 0 0 0 6.20211
0.575 0.005 0 0 0 6.14068
0.58 0.005 0 0 0 6.0733
0.585 0.005 0 0 0 6.00006
0.59 0.005 0 0 0 5.92106
0.595 0.005 0 0 0 5.83645
0.6 0.005 0 0 0 5.74636
0.605 0.005 0 0 0 5.65096
0.61 0.005 0 0 0 5.55042
0.615 0.005 0 0 0 5.44493
0.62 0.005 0 0 0 5.33471
0.625 0.005 0 0 0 5.21998
0.63 0.005 0 0 0 5.10097
0.635 0.005 0 0 0 4.97794
0.64 0.005 0 0 0 4.85115
0.645 0.005 0 0 0 4.72089
0.65 0.005 0 0 0 4.58742
0.655 0.005 0 0 0 4.45106
0.66 0.005 0 0 0 4.31212
0.665 0.005 0 0 0 4.1709
0.67 0.005 0 0 0 4.02773
0.675 0.005 0 0 0 3.88294
0.68 0.005 0 0 0 3.73687
0.685 0.005 0 0 0 3.58984
0.69 0.005 0 0 0 3.4422
0.695 0.005 0 0 0 3.29429
0.7 0.005 0 0 0 3.14645
0.705 0.005 0 0 0 2.999
0.71 0.005 0 0 0 2.85229
0.715 0.005 0 0 0 2.70663
0.72 0.005 0 0 0 2.56236
0.725 0.005 0 0 0 2.41977
0.73 0.005 0 0 0 2.27918
0.735 0.005 0 0 0 2.14087
0.74 0.005 0 0 0 2.00512
0.745 0.005 0 0 0 1.87221
0.75 0.005 0 0 0 1.74237
0.755 0.005 0 0 0 1.61586
0.76 0.005 0 0 0 1.49289
0.765 0.005 0 0 0 1.37366
0.77 0.005 0 0 0 1.25836
0.775 0.005 0 0 0 1.14716
0.78 0.005 0 0 0 1.0402
0.785 0.005 0 0 0 0.937625
0.79 0.005 0 0 0 0.839537
0.795 0.005 0 0 0 0.746029
0.8 0.005 0 0 0 0.657173
0.805 0.005 0 0 0 0.573023
0.81 0.005 0 0 0 0.493612
0.815 0.005 0 0 0 0.418956
0.82 0.005 0 0 0 0.349053
0.825 0.005 0 0 0 0.283883
0.83 0.005 0 0 0 0.223409
0.835 0.005 0 0 0 0.167581
0.84 0.005 0 0 0 0.116331
0.845 0.005 0 0 0 0.0695783
0.85 0.005 0 0 0 0.0272286
0.855 0.005 0 0 0 -0.0108235
0.86 0.005 0 0 0 -0.0446945
0.865 0.005 0 0 0 -0.0745109
0.87 0.005 0 0 0 -0.100407
0.875 0.005 0 0 0 -0.122527
0.88 0.005 0 0 0 -0.141018
0.885 0.005 0 0 0 -0.156036
0.89 0.005 0 0 0 -0.167741
0.895 0.005 0 0 0 -0.176297
0.9 0.005 0 0 0 -0.181871
0.905 0.005 0 0 0 -0.184634
0.91 0.005 0 0 0 -0.18476
0.915 0.005 0 0 0 -0.182427
0.92 0.005 0 0 0 -0.177817
0.925 0.005 0 0 0 -0.171114
0.93 0.005 0 0 0 -0.162511
0.935 0.005 0 0 0 -0.15221
0.94 0.005 0 0 0 -0.14042
0.945 0.005 0 0 0 -0.127369
0.95 0.005 0 0 0 -0.113299
0.955 0.005 0 0 0 -0.0984818
0.96 0.005 0 0 0 -0.083217
0.965 0.005 0 0 0 -0.0678473
0.97 0.005 0 0 0 -0.0527668
0.975 0.005 0 0 0 -0.0384349
0.98 0.005 0 0 0 -0.0253889
0.985 0.005 0 0 0 -0.0142525
0.99 0.005 0 0 0 -0.00572273
0.995 0.005 0 0 0 -0.000481906
1 0.005 0 0 0 0.00111439
0 0.01 0 0 0.00111439 0
0.005 0.01 0 0 0 -326.272
0.01 0.01 -0.180049 0.0775935 -0.000921604 -44.3997
0.015 0.01 -0.184878 -0.0349908 -0.000775935 9.53359
0.02 0.01 -0.156415 -0.0351255 -0.000571695 19.1191
0.025 0.01 -0.127586 -0.0245747 -0.000424679 18.9913
0.03 0.01 -0.10417 -0.0166685 -0.000325948 16.8231
0.035 0.01 -0.0859166 -0.0116881 -0.000257994 14.4882
0.04 0.01 -0.0716353 -0.00856957 -0.000209067 12.4151
0.045 0.01 -0.0602866 -0.00653522 -0.000172299 10.6582
0.05 0.01 -0.0511195 -0.00513595 -0.000143715 9.1829
0.055 0.01 -0.0436123 -0.00412391 -0.000120939 7.94229
0.06 0.01 -0.0374005 -0.00336071 -0.000102476 6.89492
0.065 0.01 -0.0322226 -0.00276629 -8.7332e-05 6.00747
0.07 0.01 -0.0278848 -0.00229213 -7.4813e-05 5.25356
0.075 0.01 -0.0242394 -0.00190735 -6.44107e-05 4.61214
0.08 0.01 -0.0211702 -0.00159123 -5.57395e-05 4.06614
0.085 0.01 -0.0185845 -0.00132924 -4.84984e-05 3.60151
0.09 0.01 -0.0164062 -0.00111076 -4.24471e-05 3.20653
0.095 0.01 -0.0145729 -0.00092772 -3.73908e-05 2.87131
0.1 0.01 -0.0130323 -0.000773825 -3.31699e-05 2.58749
0.105 0.01 -0.0117409 -0.000644064 -2.96525e-05 2.34792
0.11 0.01 -0.0106618 -0.000534376 -2.67292e-05 2.1465
0.115 0.01 -0.00976412 -0.00044143 -2.43087e-05 1.97802
0.12 0.01 -0.00902168 -0.000362477 -2.23149e-05 1.838
0.125 0.01 -0.00841239 -0.00029523 -2.0684e-05 1.72262
0.13 0.01 -0.00791757 -0.000237781 -1.93626e-05 1.62862
0.135 0.01 -0.00752146 -0.000188538 -1.83061e-05 1.55319
0.14 0.01 -0.00721072 -0.000146162 -1.74772e-05 1.49396
0.145 0.01 -0.0069741 -0.000109536 -1.68445e-05 1.44888
0.15 0.01 -0.00680213 -7.77187e-05 -1.63818e-05 1.41623
0.155 0.01 -0.00668678 -4.99234e-05 -1.60673e-05 1.39452
0.16 0.01 -0.00662134 -2.54894e-05 -1.58826e-05 1.38251
0.165 0.01 -0.00660011 -3.8637e-06 -1.58124e-05 1.37912
0.17 0.01 -0.00661832 1.54167e-05 -1.58439e-05 1.38346
0.175 0.01 -0.00667195 3.27385e-05 -1.59665e-05 1.39474
0.18 0.01 -0.0067576 4.84242e-05 -1.61713e-05 1.41232
0.185 0.01 -0.00687243 6.27423e-05 -1.64508e-05 1.43565
0.19 0.01 -0.00701402 7.59154e-05 -1.67987e-05 1.46424
0.195 0.01 -0.00718035 8.81279e-05 -1.72099e-05 1.4977
0.2 0.01 -0.00736967 9.95314e-05 -1.768e-05 1.53568
0.205 0.01 -0.00758052 0.00011025 -1.82052e-05 1.57787
0.21 0.01 -0.00781164 0.000120387 -1.87825e-05 1.62403
0.215 0.01 -0.00806194 0.000130022 -1.94091e-05 1.67393
0.22 0.01 -0.00833045 0.000139223 -2.00827e-05 1.72737
0.225 0.01 -0.00861635 0.000148042 -2.08013e-05 1.78416
0.23 0.01 -0.00891888 0.00015652 -2.15631e-05 1.84416
0.235 0.01 -0.00923735 0.000164689 -2.23665e-05 1.90722
0.24 0.01 -0.00957114 0.000172573 -2.321e-05 1.97321
0.245 0.01 -0.00991966 0.000180188 -2.40922e-05 2.04198
0.25 0.01 -0.0102823 0.000187546 -2.50119e-05 2.11343
0.255 0.01 -0.0106586 0.000194654 -2.59677e-05 2.18744
0.26 0.01 -0.011048 0.000201514 -2.69584e-05 2.26389
0.265 0.01 -0.01145 0.000208127 -2.79828e-05 2.34267
0.27 0.01 -0.011864 0.000214488 -2.90397e-05 2.42366
0.275 0.01 -0.0122894 0.000220594 -3.01277e-05 2.50675
0.28 0.01 -0.0127258 0.000226435 -3.12456e-05 2.59181
0.285 0.01 -0.0131726 0.000232003 -3.2392e-05 2.67874
0.29 0.01 -0.0136291 0.000237287 -3.35656e-05 2.76741
0.295 0.01 -0.0140948 0.000242277 -3.47649e-05 2.85769
0.3 0.01 -0.0145691 0.000246959 -3.59884e-05 2.94946
0.305 0.01 -0.0150512 0.000251321 -3.72345e-05 3.04257
0.31 0.01 -0.0155406 0.000255349 -3.85016e-05 3.1369
0.315 0.01 -0.0160366 0.000259029 -3.9788e-05 3.2323
0.32 0.01 -0.0165384 0.000262347 -4.10919e-05 3.32863
0.325 0.01 -0.0170452 0.000265289 -4.24115e-05 3.42573
0.33 0.01 -0.0175564 0.00026784 -4.37448e-05 3.52346
0.335 0.01 -0.0180711 0.000269986 -4.50899e-05 3.62165
0.34 0.01 -0.0185885 0.000271714 -4.64447e-05 3.72015
0.345 0.01 -0.0191078 0.000273011 -4.7807e-05 3.81878
0.35 0.01 -0.0196281 0.000273862 -4.91748e-05 3.91739
0.355 0.01 -0.0201486 0.000274256 -5.05457e-05 4.0158
0.36 0.01 -0.0206682 0.000274181 -5.19174e-05 4.11383
0.365 0.01 -0.0211862 0.000273625 -5.32875e-05 4.21131
0.37 0.01 -0.0217015 0.000272579 -5.46536e-05 4.30806
0.375 0.01 -0.0222133 0.000271032 -5.60133e-05 4.40389
0.38 0.01 -0.0227205 0.000268976 -5.7364e-05 4.49863
0.385 0.01 -0.0232222 0.000266403 -5.87031e-05 4.59208
0.39 0.01 -0.0237175 0.000263307 -6.0028e-05 4.68407
0.395 0.01 -0.0242052 0.000259682 -6.13362e-05 4.77441
0.4 0.01 -0.0246845 0.000255523 -6.26249e-05 4.86291
0.405 0.01 -0.0251542 0.000250827 -6.38914e-05 4.94939
0.41 0.01 -0.0256135 0.000245593 -6.51332e-05 5.03365
0.415 0.01 -0.0260613 0.000239818 -6.63474e-05 5.11553
0.42 0.01 -0.0264966 0.000233503 -6.75314e-05 5.19483
0.425 0.01 -0.0269185 0.000226651 -6.86824e-05 5.27138
0.43 0.01 -0.0273259 0.000219265 -6.97979e-05 5.345
0.435 0.01 -0.0277179 0.000211348 -7.08751e-05 5.41551
0.44 0.01 -0.0280935 0.000202906 -7.19114e-05 5.48275
0.445 0.01 -0.0284518 0.000193948 -7.29042e-05 5.54654
0.45 0.01 -0.0287919 0.000184482 -7.38509e-05 5.60673
0.455 0.01 -0.0291128 0.000174517 -7.47491e-05 5.66315
0.46 0.01 -0.0294137 0.000164067 -7.55962e-05 5.71566
0.465 0.01 -0.0296938 0.000153144 -7.63898e-05 5.7641
0.47 0.01 -0.0299522 0.000141762 -7.71276e-05 5.80834
0.475 0.01 -0.0301881 0.000129939 -7.78074e-05 5.84824
0.48 0.01 -0.0304008 0.000117692 -7.84271e-05 5.88368
0.485 0.01 -0.0305896 0.00010504 -7.89844e-05 5.91453
0.49 0.01 -0.0307538 9.20053e-05 -7.94775e-05 5.94068
0.495 0.01 -0.0308928 7.86091e-05 -7.99045e-05 5.96203
0.5 0.01 -0.0310059 6.48758e-05 -8.02637e-05 5.97849
0.505 0.01 -0.0310927 5.08308e-05 -8.05533e-05 5.98996
0.51 0.01 -0.0311526 3.65011e-05 -8.0772e-05 5.99638
0.515 0.01 -0.0311852 2.1915e-05 -8.09184e-05 5.99767
0.52 0.01 -0.0311901 7.10242e-06 -8.09912e-05 5.99378
0.525 0.01 -0.0311671 -7.90554e-06 -8.09895e-05 5.98466
0.53 0.01 -0.0311158 -2.30764e-05 -8.09122e-05 5.97028
0.535 0.01 -0.031036 -3.83763e-05 -8.07587e-05 5.95061
0.54 0.01 -0.0309275 -5.37704e-05 -8.05285e-05 5.92565
0.545 0.01 -0.0307904 -6.92225e-05 -8.02211e-05 5.89538
0.55 0.01 -0.0306246 -8.46956e-05 -7.98363e-05 5.85983
0.555 0.01 -0.0304301 -0.000100151 -7.93742e-05 5.81902
0.56 0.01 -0.0302071 -0.000115551 -7.88349e-05 5.77297
0.565 0.01 -0.0299557 -0.000130855 -7.82187e-05 5.72175
0.57 0.01 -0.0296763 -0.000146023 -7.75264e-05 5.6654
0.575 0.01 -0.0293692 -0.000161014 -7.67586e-05 5.60401
0.58 0.01 -0.0290347 -0.000175787 -7.59163e-05 5.53766
0.585 0.01 -0.0286734 -0.000190301 -7.50008e-05 5.46645
0.59 0.01 -0.0282859 -0.000204513 -7.40134e-05 5.39048
0.595 0.01 -0.0278727 -0.000218384 -7.29557e-05 5.30989
0.6 0.01 -0.0274346 -0.000231872 -7.18296e-05 5.22481
0.605 0.01 -0.0269723 -0.000244937 -7.0637e-05 5.13539
0.61 0.01 -0.0264867 -0.000257538 -6.93803e-05 5.04178
0.615 0.01 -0.0259787 -0.000269637 -6.80617e-05 4.94416
0.62 0.01 -0.0254492 -0.000281197 -6.66839e-05 4.84272
0.625 0.01 -0.0248994 -0.000292179 -6.52498e-05 4.73764
0.63 0.01 -0.0243303 -0.000302551 -6.37622e-05 4.62913
0.635 0.01 -0.0237431 -0.000312277 -6.22243e-05 4.51741
0.64 0.01 -0.023139 -0.000321327 -6.06395e-05 4.40269
0.645 0.01 -0.0225192 -0.000329672 -5.90111e-05 4.28521
0.65 0.01 -0.0218852 -0.000337283 -5.73428e-05 4.16522
0.655 0.01 -0.0212383 -0.000344137 -5.56383e-05 4.04295
0.66 0.01 -0.0205798 -0.000350212 -5.39015e-05 3.91866
0.665 0.01 -0.0199112 -0.000355488 -5.21363e-05 3.79261
0.67 0.01 -0.019234 -0.00035995 -5.03467e-05 3.66506
0.675 0.01 -0.0185497 -0.000363584 -4.85368e-05 3.53629
0.68 0.01 -0.0178598 -0.00036638 -4.67109e-05 3.40657
0.685 0.01 -0.0171658 -0.000368333 -4.4873e-05 3.27616
0.69 0.01 -0.0164692 -0.000369439 -4.30276e-05 3.14534
0.695 0.01 -0.0157716 -0.000369699 -4.11787e-05 3.0144
0.7 0.01 -0.0150746 -0.000369117 -3.93306e-05 2.88359
0.705 0.01 -0.0143796 -0.000367701 -3.74876e-05 2.7532
0.71 0.01 -0.0136881 -0.000365463 -3.56536e-05 2.62349
0.715 0.01 -0.0130017 -0.000362416 -3.3833e-05 2.49472
0.72 0.01 -0.0123217 -0.00035858 -3.20295e-05 2.36716
0.725 0.01 -0.0116496 -0.000353977 -3.02472e-05 2.24106
0.73 0.01 -0.0109868 -0.000348631 -2.84898e-05 2.11667
0.735 0.01 -0.0103345 -0.000342572 -2.67609e-05 1.99422
0.74 0.01 -0.00969413 -0.000335829 -2.50641e-05 1.87394
0.745 0.01 -0.0090668 -0.000328439 -2.34026e-05 1.75605
0.75 0.01 -0.00845371 -0.000320436 -2.17797e-05 1.64077
0.755 0.01 -0.00785593 -0.000311862 -2.01983e-05 1.52828
0.76 0.01 -0.00727447 -0.000302756 -1.86611e-05 1.41877
0.765 0.01 -0.00671028 -0.000293163 -1.71707e-05 1.31242
0.77 0.01 -0.00616422 -0.000283128 -1.57295e-05 1.20938
0.775 0.01 -0.00563707 -0.000272695 -1.43395e-05 1.10979
0.78 0.01 -0.00512952 -0.000261914 -1.30025e-05 1.0138
0.785 0.01 -0.0046422 -0.000250831 -1.17203e-05 0.921498
0.79 0.01 -0.00417562 -0.000239495 -1.04942e-05 0.833002
0.795 0.01 -0.00373024 -0.000227955 -9.32537e-06 0.748392
0.8 0.01 -0.0033064 -0.000216258 -8.21467e-06 0.667738
0.805 0.01 -0.00290437 -0.000204452 -7.16279e-06 0.591094
0.81 0.01 -0.00252433 -0.000192584 -6.17015e-06 0.518499
0.815 0.01 -0.00216639 -0.000180699 -5.23694e-06 0.449979
0.82 0.01 -0.00183057 -0.000168841 -4.36315e-06 0.385542
0.825 0.01 -0.00151679 -0.000157054 -3.54853e-06 0.325184
0.83 0.01 -0.00122493 -0.000145376 -2.79261e-06 0.268887
0.835 0.01 -0.000954778 -0.000133847 -2.09476e-06 0.216619
0.84 0.01 -0.000706047 -0.000122503 -1.45413e-06 0.168336
0.845 0.01 -0.000478395 -0.000111378 -8.69722e-07 0.123982
0.85 0.01 -0.000271418 -0.000100502 -3.40351e-07 0.0834877
0.855 0.01 -8.46524e-05 -8.99032e-05 1.35301e-07 0.0467754
0.86 0.01 8.24146e-05 -7.96085e-05 5.58689e-07 0.0137565
0.865 0.01 0.000230345 -6.96404e-05 9.31393e-07 -0.0156668
0.87 0.01 0.000359742 -6.00191e-05 1.2551e-06 -0.0416005
0.875 0.01 0.00047125 -5.07626e-05 1.53159e-06 -0.0641586
0.88 0.01 0.000565543 -4.18863e-05 1.76273e-06 -0.083462
0.885 0.01 0.000643328 -3.34033e-05 1.95046e-06 -0.0996378
0.89 0.01 0.000705339 -2.5325e-05 2.09678e-06 -0.112819
0.895 0.01 0.000752332 -1.76612e-05 2.20372e-06 -0.123145
0.9 0.01 0.000785085 -1.04205e-05 2.27339e-06 -0.130757
0.905 0.01 0.000804396 -3.61107e-06 2.30793e-06 -0.135806
0.91 0.01 0.000811082 2.75894e-06 2.30951e-06 -0.138442
0.915 0.01 0.000805981 8.68051e-06 2.28035e-06 -0.138826
0.92 0.01 0.000789955 1.41428e-05 2.22271e-06 -0.137119
0.925 0.01 0.00076389 1.91321e-05 2.13893e-06 -0.133492
0.93 0.01 0.00072871 2.36305e-05 2.0314e-06 -0.128123
0.935 0.01 0.000685375 2.76142e-05 1.90263e-06 -0.121196
0.94 0.01 0.000634903 3.10517e-05 1.75526e-06 -0.11291
0.945 0.01 0.000578378 3.39015e-05 1.59211e-06 -0.103474
0.95 0.01 0.00051697 3.61089e-05 1.41625e-06 -0.0931141
0.955 0.01 0.000451957 3.76033e-05 1.23102e-06 -0.0820774
0.96 0.01 0.000384755 3.82934e-05 1.04021e-06 -0.0706326
0.965 0.01 0.000316946 3.80629e-05 8.48092e-07 -0.0590759
0.97 0.01 0.000250313 3.67656e-05 6.59587e-07 -0.0477326
0.975 0.01 0.000186873 3.42226e-05 4.80437e-07 -0.0369571
0.98 0.01 0.000128897 3.02281e-05 3.17361e-07 -0.0271248
0.985 0.01 7.88912e-05 2.45827e-05 1.78157e-07 -0.0186072
0.99 0.01 3.94723e-05 1.72133e-05 7.15341e-08 -0.0117107
0.995 0.01 1.29955e-05 8.5464e-06 6.02377e-09 -0.00653857
1 0.01 6.02689e-07 6.02377e-07 -1.39299e-08 -0.00271081
0 0.015 0 0 -0.000482151 0
0.005 0.015 0 0 0 -255.961
0.01 0.015 -0.152865 0.184878 -0.00180049 -79.2522
0.015 0.015 -0.206267 -0.023634 -0.00184878 -16.6379
0.02 0.015 -0.204626 -0.0572923 -0.00156415 2.30823
0.025 0.015 -0.184611 -0.052245 -0.00127586 7.91535
0.03 0.015 -0.161078 -0.0416691 -0.0010417 9.23657
0.035 0.015 -0.139018 -0.0325343 -0.000859166 9.10203
0.04 0.015 -0.119721 -0.0256299 -0.000716353 8.47874
0.045 0.015 -0.103231 -0.0205159 -0.000602866 7.71969
0.05 0.015 -0.0892313 -0.0166743 -0.000511195 6.95816
0.055 0.015 -0.0773514 -0.0137189 -0.000436123 6.244
0.06 0.015 -0.067257 -0.0113897 -0.000374005 5.59397
0.065 0.015 -0.0586671 -0.00951572 -0.000322226 5.0114
0.07 0.015 -0.0513499 -0.00798323 -0.000278848 4.49409
0.075 0.015 -0.0451144 -0.00671457 -0.000242394 4.03766
0.08 0.015 -0.0398017 -0.00565488 -0.000211702 3.63698
0.085 0.015 -0.0352789 -0.00476402 -0.000185845 3.28685
0.09 0.015 -0.0314336 -0.00401158 -0.000164062 2.9822
0.095 0.015 -0.0281706 -0.00337388 -0.000145729 2.71832
0.1 0.015 -0.0254087 -0.002832 -0.000130323 2.49083
0.105 0.015 -0.0230782 -0.00237052 -0.000117409 2.29574
0.11 0.015 -0.0211199 -0.00197676 -0.000106618 2.12943
0.115 0.015 -0.0194829 -0.00164012 -9.76412e-05 1.98866
0.12 0.015 -0.0181235 -0.00135173 -9.02168e-05 1.87051
0.125 0.015 -0.0170045 -0.0011041 -8.41238e-05 1.77242
0.13 0.015 -0.0160941 -0.000890926 -7.91757e-05 1.69208
0.135 0.015 -0.015365 -0.000706852 -7.52145e-05 1.62749
0.14 0.015 -0.014794 -0.00054735 -7.21071e-05 1.57687
0.145 0.015 -0.0143613 -0.000408586 -6.9741e-05 1.53866
0.15 0.015 -0.01405 -0.000287313 -6.80212e-05 1.51151
0.155 0.015 -0.0138458 -0.000180783 -6.68678e-05 1.49424
0.16 0.015 -0.0137365 -8.66701e-05 -6.62133e-05 1.48583
0.165 0.015 -0.0137117 -3.01419e-06 -6.60011e-05 1.48537
0.17 0.015 -0.0137627 7.18395e-05 -6.61832e-05 1.49211
0.175 0.015 -0.0138819 0.000139283 -6.67194e-05 1.50536
0.18 0.015 -0.0140631 0.000200485 -6.7576e-05 1.52454
0.185 0.015 -0.0143008 0.000256426 -6.87242e-05 1.54916
0.19 0.015 -0.0145905 0.000307921 -7.01402e-05 1.57877
0.195 0.015 -0.0149282 0.000355652 -7.18034e-05 1.61299
0.2 0.015 -0.0153105 0.000400182 -7.36967e-05 1.65149
0.205 0.015 -0.0157347 0.000441977 -7.58052e-05 1.69398
0.21 0.015 -0.0161981 0.000481416 -7.81164e-05 1.74019
0.215 0.015 -0.0166986 0.000518812 -8.06194e-05 1.78991
0.22 0.015 -0.0172342 0.000554415 -8.33045e-05 1.8429
0.225 0.015 -0.0178033 0.000588426 -8.61635e-05 1.89901
0.23 0.015 -0.0184043 0.000621002 -8.91887e-05 1.95804
0.235 0.015 -0.0190357 0.000652266 -9.23735e-05 2.01984
0.24 0.015 -0.0196962 0.000682311 -9.57114e-05 2.08427
0.245 0.015 -0.0203846 0.000711204 -9.91966e-05 2.15117
0.25 0.015 -0.0210997 0.00073899 -0.000102823 2.22042
0.255 0.015 -0.0218404 0.000765698 -0.000106586 2.29188
0.26 0.015 -0.0226054 0.000791342 -0.00011048 2.36542
0.265 0.015 -0.0233937 0.000815921 -0.0001145 2.44092
0.27 0.015 -0.0242041 0.000839427 -0.00011864 2.51824
0.275 0.015 -0.0250355 0.000861841 -0.000122894 2.59726
0.28 0.015 -0.0258867 0.000883136 -0.000127258 2.67785
0.285 0.015 -0.0267566 0.000903282 -0.000131726 2.75987
0.29 0.015 -0.0276439 0.000922242 -0.000136291 2.84321
0.295 0.015 -0.0285473 0.000939975 -0.000140948 2.92771
0.3 0.015 -0.0294656 0.000956438 -0.000145691 3.01324
0.305 0.015 -0.0303975 0.000971584 -0.000150512 3.09967
0.31 0.015 -0.0313416 0.000985367 -0.000155406 3.18686
0.315 0.015 -0.0322964 0.000997737 -0.000160366 3.27464
0.32 0.015 -0.0332605 0.00100865 -0.000165384 3.36289
0.325 0.015 -0.0342325 0.00101804 -0.000170453 3.45145
0.33 0.015 -0.0352108 0.00102588 -0.000175564 3.54016
0.335 0.015 -0.0361938 0.00103211 -0.000180711 3.62888
0.34 0.015 -0.0371799 0.00103669 -0.000185886 3.71744
0.345 0.015 -0.0381675 0.00103957 -0.000191078 3.80569
0.35 0.015 -0.0391548 0.00104072 -0.000196281 3.89346
0.355 0.015 -0.0401402 0.00104007 -0.000201486 3.9806
0.36 0.015 -0.041122 0.00103762 -0.000206682 4.06694
0.365 0.015 -0.0420983 0.0010333 -0.000211862 4.15233
0.37 0.015 -0.0430674 0.00102711 -0.000217015 4.23658
0.375 0.015 -0.0440274 0.001019 -0.000222133 4.31956
0.38 0.015 -0.0449765 0.00100895 -0.000227205 4.40108
0.385 0.015 -0.0459129 0.00099694 -0.000232222 4.48099
0.39 0.015 -0.0468347 0.000982957 -0.000237175 4.55913
0.395 0.015 -0.04774 0.000966985 -0.000242052 4.63533
0.4 0.015 -0.0486271 0.000949017 -0.000246845 4.70945
0.405 0.015 -0.049494 0.000929048 -0.000251542 4.78131
0.41 0.015 -0.0503389 0.000907079 -0.000256135 4.85078
0.415 0.015 -0.0511599 0.000883115 -0.000260613 4.91769
0.42 0.015 -0.0519553 0.000857166 -0.000264967 4.98191
0.425 0.015 -0.0527232 0.000829247 -0.000269185 5.04328
0.43 0.015 -0.0534618 0.000799379 -0.000273259 5.10167
0.435 0.015 -0.0541695 0.000767586 -0.000277179 5.15694
0.44 0.015 -0.0548445 0.000733898 -0.000280935 5.20897
0.445 0.015 -0.0554851 0.00069835 -0.000284518 5.25762
0.45 0.015 -0.0560896 0.000660983 -0.000287919 5.30277
0.455 0.015 -0.0566566 0.000621842 -0.000291128 5.34431
0.46 0.015 -0.0571844 0.000580978 -0.000294137 5.38213
0.465 0.015 -0.0576716 0.000538448 -0.000296938 5.41613
0.47 0.015 -0.0581168 0.000494312 -0.000299522 5.4462
0.475 0.015 -0.0585187 0.000448637 -0.000301881 5.47226
0.48 0.015 -0.0588758 0.000401496 -0.000304009 5.49423
0.485 0.015 -0.0591871 0.000352964 -0.000305896 5.51203
0.49 0.015 -0.0594514 0.000303125 -0.000307538 5.52559
0.495 0.015 -0.0596676 0.000252065 -0.000308928 5.53485
0.5 0.015 -0.0598349 0.000199878 -0.000310059 5.53975
0.505 0.015 -0.0599522 0.00014666 -0.000310927 5.54026
0.51 0.015 -0.0600189 9.25133e-05 -0.000311526 5.53633
0.515 0.015 -0.0600343 3.75453e-05 -0.000311852 5.52794
0.52 0.015 -0.0599978 -1.81326e-05 -0.000311902 5.51506
0.525 0.015 -0.0599088 -7.44046e-05 -0.000311671 5.4977
0.53 0.015 -0.0597672 -0.000131151 -0.000311158 5.47583
0.535 0.015 -0.0595725 -0.000188247 -0.00031036 5.44948
0.54 0.015 -0.0593248 -0.000245564 -0.000309276 5.41866
0.545 0.015 -0.0590238 -0.000302973 -0.000307904 5.38339
0.55 0.015 -0.0586699 -0.000360338 -0.000306246 5.34371
0.555 0.015 -0.0582631 -0.000417521 -0.000304301 5.29966
0.56 0.015 -0.0578038 -0.000474383 -0.000302071 5.2513
0.565 0.015 -0.0572925 -0.000530782 -0.000299558 5.19868
0.57 0.015 -0.0567299 -0.000586574 -0.000296763 5.14189
0.575 0.015 -0.0561165 -0.000641614 -0.000293692 5.08099
0.58 0.015 -0.0554533 -0.000695757 -0.000290348 5.01609
0.585 0.015 -0.0547412 -0.000748856 -0.000286735 4.94727
0.59 0.015 -0.0539815 -0.000800766 -0.000282859 4.87465
0.595 0.015 -0.0531751 -0.000851342 -0.000278727 4.79835
0.6 0.015 -0.0523237 -0.000900441 -0.000274346 4.71849
0.605 0.015 -0.0514285 -0.000947922 -0.000269723 4.6352
0.61 0.015 -0.0504913 -0.000993647 -0.000264867 4.54862
0.615 0.015 -0.0495137 -0.00103748 -0.000259787 4.45891
0.62 0.015 -0.0484976 -0.00107929 -0.000254492 4.36622
0.625 0.015 -0.0474449 -0.00111895 -0.000248994 4.27071
0.63 0.015 -0.0463577 -0.00115634 -0.000243303 4.17257
0.635 0.015 -0.0452381 -0.00119134 -0.000237431 4.07195
0.64 0.015 -0.0440883 -0.00122385 -0.00023139 3.96905
0.645 0.015 -0.0429108 -0.00125377 -0.000225193 3.86406
0.65 0.015 -0.0417078 -0.001281 -0.000218852 3.75717
0.655 0.015 -0.0404819 -0.00130546 -0.000212383 3.64858
0.66 0.015 -0.0392356 -0.00132708 -0.000205798 3.53849
0.665 0.015 -0.0379716 -0.00134578 -0.000199112 3.42711
0.67 0.015 -0.0366925 -0.00136152 -0.00019234 3.31464
0.675 0.015 -0.035401 -0.00137425 -0.000185497 3.20131
0.68 0.015 -0.0340998 -0.00138395 -0.000178598 3.08732
0.685 0.015 -0.0327917 -0.00139058 -0.000171658 2.97289
0.69 0.015 -0.0314795 -0.00139414 -0.000164692 2.85823
0.695 0.015 -0.030166 -0.00139463 -0.000157717 2.74355
0.7 0.015 -0.0288538 -0.00139207 -0.000150746 2.62909
0.705 0.015 -0.0275457 -0.00138649 -0.000143796 2.51503
0.71 0.015 -0.0262445 -0.00137793 -0.000136881 2.4016
0.715 0.015 -0.0249528 -0.00136644 -0.000130017 2.289
0.72 0.015 -0.0236732 -0.00135208 -0.000123217 2.17744
0.725 0.015 -0.0224083 -0.00133494 -0.000116496 2.06711
0.73 0.015 -0.0211606 -0.0013151 -0.000109868 1.95821
0.735 0.015 -0.0199324 -0.00129265 -0.000103345 1.85093
0.74 0.015 -0.018726 -0.00126772 -9.69413e-05 1.74545
0.745 0.015 -0.0175438 -0.00124042 -9.06681e-05 1.64195
0.75 0.015 -0.0163877 -0.00121089 -8.45372e-05 1.54059
0.755 0.015 -0.0152597 -0.00117925 -7.85593e-05 1.44153
0.76 0.015 -0.0141618 -0.00114565 -7.27447e-05 1.34493
0.765 0.015 -0.0130956 -0.00111026 -6.71028e-05 1.25093
0.77 0.015 -0.0120628 -0.00107322 -6.16422e-05 1.15965
0.775 0.015 -0.0110647 -0.0010347 -5.63707e-05 1.07122
0.78 0.015 -0.0101027 -0.000994871 -5.12952e-05 0.985755
0.785 0.015 -0.00917797 -0.000953901 -4.6422e-05 0.903352
0.79 0.015 -0.00829147 -0.000911962 -4.17562e-05 0.8241
0.795 0.015 -0.00744406 -0.000869228 -3.73024e-05 0.748079
0.8 0.015 -0.00663643 -0.000825871 -3.3064e-05 0.675354
0.805 0.015 -0.00586914 -0.000782063 -2.90437e-05 0.605982
0.81 0.015 -0.00514255 -0.000737972 -2.52433e-05 0.540005
0.815 0.015 -0.00445693 -0.000693764 -2.16639e-05 0.477457
0.82 0.015 -0.00381234 -0.0006496 -1.83057e-05 0.418356
0.825 0.015 -0.00320875 -0.000605633 -1.51679e-05 0.362712
0.83 0.015 -0.00264595 -0.000562015 -1.22493e-05 0.310524
0.835 0.015 -0.00212362 -0.000518886 -9.54776e-06 0.261777