Title=" Lid Driven Flow"
VARIABLES="X","Y","U","V","psi","xi"
ZONE T= "BOX", I= 201, J=201, F=POINT
0 0 0 0 0.000352407 0
0.005 0 0 0 0 0
0.01 0 0 0 0 0
0.015 0 0 0 0 161.888
0.02 0 0 0 0 176.135
0.025 0 0 0 0 155.658
0.03 0 0 0 0 133.327
0.035 0 0 0 0 115.872
0.04 0 0 0 0 103.077
0.045 0 0 0 0 93.589
0.05 0 0 0 0 86.293
0.055 0 0 0 0 80.453
0.06 0 0 0 0 75.6096
0.065 0 0 0 0 71.4745
0.07 0 0 0 0 67.8614
0.075 0 0 0 0 64.646
0.08 0 0 0 0 61.7426
0.085 0 0 0 0 59.0902
0.09 0 0 0 0 56.6448
0.095 0 0 0 0 54.3735
0.1 0 0 0 0 52.2518
0.105 0 0 0 0 50.2607
0.11 0 0 0 0 48.3854
0.115 0 0 0 0 46.6141
0.12 0 0 0 0 44.9372
0.125 0 0 0 0 43.3468
0.13 0 0 0 0 41.836
0.135 0 0 0 0 40.399
0.14 0 0 0 0 39.0308
0.145 0 0 0 0 37.7268
0.15 0 0 0 0 36.4829
0.155 0 0 0 0 35.2951
0.16 0 0 0 0 34.16
0.165 0 0 0 0 33.0744
0.17 0 0 0 0 32.035
0.175 0 0 0 0 31.039
0.18 0 0 0 0 30.0836
0.185 0 0 0 0 29.1661
0.19 0 0 0 0 28.2841
0.195 0 0 0 0 27.4352
0.2 0 0 0 0 26.617
0.205 0 0 0 0 25.8276
0.21 0 0 0 0 25.0648
0.215 0 0 0 0 24.3267
0.22 0 0 0 0 23.6116
0.225 0 0 0 0 22.9177
0.23 0 0 0 0 22.2434
0.235 0 0 0 0 21.5872
0.24 0 0 0 0 20.9477
0.245 0 0 0 0 20.3237
0.25 0 0 0 0 19.7139
0.255 0 0 0 0 19.1173
0.26 0 0 0 0 18.5329
0.265 0 0 0 0 17.9596
0.27 0 0 0 0 17.3969
0.275 0 0 0 0 16.8438
0.28 0 0 0 0 16.2997
0.285 0 0 0 0 15.7642
0.29 0 0 0 0 15.2367
0.295 0 0 0 0 14.7168
0.3 0 0 0 0 14.2043
0.305 0 0 0 0 13.6988
0.31 0 0 0 0 13.2003
0.315 0 0 0 0 12.7085
0.32 0 0 0 0 12.2236
0.325 0 0 0 0 11.7453
0.33 0 0 0 0 11.2739
0.335 0 0 0 0 10.8095
0.34 0 0 0 0 10.3521
0.345 0 0 0 0 9.90205
0.35 0 0 0 0 9.45953
0.355 0 0 0 0 9.02478
0.36 0 0 0 0 8.59811
0.365 0 0 0 0 8.17981
0.37 0 0 0 0 7.7702
0.375 0 0 0 0 7.36958
0.38 0 0 0 0 6.97828
0.385 0 0 0 0 6.59663
0.39 0 0 0 0 6.22492
0.395 0 0 0 0 5.86346
0.4 0 0 0 0 5.51252
0.405 0 0 0 0 5.17236
0.41 0 0 0 0 4.84321
0.415 0 0 0 0 4.52527
0.42 0 0 0 0 4.21872
0.425 0 0 0 0 3.9237
0.43 0 0 0 0 3.64029
0.435 0 0 0 0 3.36859
0.44 0 0 0 0 3.1086
0.445 0 0 0 0 2.86032
0.45 0 0 0 0 2.62371
0.455 0 0 0 0 2.39868
0.46 0 0 0 0 2.18511
0.465 0 0 0 0 1.98285
0.47 0 0 0 0 1.79171
0.475 0 0 0 0 1.61147
0.48 0 0 0 0 1.44188
0.485 0 0 0 0 1.28268
0.49 0 0 0 0 1.13357
0.495 0 0 0 0 0.994226
0.5 0 0 0 0 0.864327
0.505 0 0 0 0 0.743522
0.51 0 0 0 0 0.631452
0.515 0 0 0 0 0.527751
0.52 0 0 0 0 0.432044
0.525 0 0 0 0 0.343955
0.53 0 0 0 0 0.263104
0.535 0 0 0 0 0.189114
0.54 0 0 0 0 0.121609
0.545 0 0 0 0 0.0602187
0.55 0 0 0 0 0.00457803
0.555 0 0 0 0 -0.0456705
0.56 0 0 0 0 -0.0908755
0.565 0 0 0 0 -0.131376
0.57 0 0 0 0 -0.167499
0.575 0 0 0 0 -0.199562
0.58 0 0 0 0 -0.227869
0.585 0 0 0 0 -0.252708
0.59 0 0 0 0 -0.274358
0.595 0 0 0 0 -0.293081
0.6 0 0 0 0 -0.309123
0.605 0 0 0 0 -0.322718
0.61 0 0 0 0 -0.334082
0.615 0 0 0 0 -0.343419
0.62 0 0 0 0 -0.350914
0.625 0 0 0 0 -0.356742
0.63 0 0 0 0 -0.361059
0.635 0 0 0 0 -0.364011
0.64 0 0 0 0 -0.365728
0.645 0 0 0 0 -0.366331
0.65 0 0 0 0 -0.365925
0.655 0 0 0 0 -0.364609
0.66 0 0 0 0 -0.362471
0.665 0 0 0 0 -0.359588
0.67 0 0 0 0 -0.356033
0.675 0 0 0 0 -0.35187
0.68 0 0 0 0 -0.347158
0.685 0 0 0 0 -0.341951
0.69 0 0 0 0 -0.3363
0.695 0 0 0 0 -0.33025
0.7 0 0 0 0 -0.323845
0.705 0 0 0 0 -0.317127
0.71 0 0 0 0 -0.310134
0.715 0 0 0 0 -0.302904
0.72 0 0 0 0 -0.295473
0.725 0 0 0 0 -0.287875
0.73 0 0 0 0 -0.280145
0.735 0 0 0 0 -0.272315
0.74 0 0 0 0 -0.264416
0.745 0 0 0 0 -0.256477
0.75 0 0 0 0 -0.248527
0.755 0 0 0 0 -0.240594
0.76 0 0 0 0 -0.232702
0.765 0 0 0 0 -0.224877
0.77 0 0 0 0 -0.217139
0.775 0 0 0 0 -0.209509
0.78 0 0 0 0 -0.202005
0.785 0 0 0 0 -0.194643
0.79 0 0 0 0 -0.187438
0.795 0 0 0 0 -0.180402
0.8 0 0 0 0 -0.173543
0.805 0 0 0 0 -0.16687
0.81 0 0 0 0 -0.160387
0.815 0 0 0 0 -0.154099
0.82 0 0 0 0 -0.148007
0.825 0 0 0 0 -0.142109
0.83 0 0 0 0 -0.136402
0.835 0 0 0 0 -0.130884
0.84 0 0 0 0 -0.125546
0.845 0 0 0 0 -0.120382
0.85 0 0 0 0 -0.115381
0.855 0 0 0 0 -0.110534
0.86 0 0 0 0 -0.105828
0.865 0 0 0 0 -0.101251
0.87 0 0 0 0 -0.0967883
0.875 0 0 0 0 -0.0924262
0.88 0 0 0 0 -0.0881495
0.885 0 0 0 0 -0.0839432
0.89 0 0 0 0 -0.0797919
0.895 0 0 0 0 -0.0756809
0.9 0 0 0 0 -0.0715958
0.905 0 0 0 0 -0.0675229
0.91 0 0 0 0 -0.0634502
0.915 0 0 0 0 -0.0593669
0.92 0 0 0 0 -0.0552645
0.925 0 0 0 0 -0.0511372
0.93 0 0 0 0 -0.0469822
0.935 0 0 0 0 -0.0428009
0.94 0 0 0 0 -0.0385989
0.945 0 0 0 0 -0.0343878
0.95 0 0 0 0 -0.0301854
0.955 0 0 0 0 -0.0260171
0.96 0 0 0 0 -0.0219174
0.965 0 0 0 0 -0.017931
0.97 0 0 0 0 -0.0141146
0.975 0 0 0 0 -0.0105388
0.98 0 0 0 0 -0.00728912
0.985 0 0 0 0 -0.00446759
0.99 0 0 0 0 -0.00219047
0.995 0 0 0 0 -0.000579569
1 0 0 0 0 0.000266343
0 0.005 0 0 0 0
0.005 0.005 0 0 0 0
0.01 0.005 0 0 0 73.7231
0.015 0.005 0 0 0 61.9691
0.02 0.005 0 0 0 45.4964
0.025 0.005 0 0 0 33.6609
0.03 0.005 0 0 0 25.7864
0.035 0.005 0 0 0 20.4664
0.04 0.005 0 0 0 16.7356
0.045 0.005 0 0 0 14.0166
0.05 0.005 0 0 0 11.9673
0.055 0.005 0 0 0 10.3796
0.06 0.005 0 0 0 9.12156
0.065 0.005 0 0 0 8.10641
0.07 0.005 0 0 0 7.27473
0.075 0.005 0 0 0 6.5846
0.08 0.005 0 0 0 6.00571
0.085 0.005 0 0 0 5.51554
0.09 0.005 0 0 0 5.09713
0.095 0.005 0 0 0 4.73742
0.1 0.005 0 0 0 4.42623
0.105 0.005 0 0 0 4.15554
0.11 0.005 0 0 0 3.91893
0.115 0.005 0 0 0 3.71121
0.12 0.005 0 0 0 3.52816
0.125 0.005 0 0 0 3.36631
0.13 0.005 0 0 0 3.22279
0.135 0.005 0 0 0 3.09519
0.14 0.005 0 0 0 2.9815
0.145 0.005 0 0 0 2.88
0.15 0.005 0 0 0 2.78924
0.155 0.005 0 0 0 2.70798
0.16 0.005 0 0 0 2.63515
0.165 0.005 0 0 0 2.56981
0.17 0.005 0 0 0 2.51117
0.175 0.005 0 0 0 2.45851
0.18 0.005 0 0 0 2.41122
0.185 0.005 0 0 0 2.36876
0.19 0.005 0 0 0 2.33064
0.195 0.005 0 0 0 2.29643
0.2 0.005 0 0 0 2.26576
0.205 0.005 0 0 0 2.23828
0.21 0.005 0 0 0 2.21368
0.215 0.005 0 0 0 2.1917
0.22 0.005 0 0 0 2.17207
0.225 0.005 0 0 0 2.15457
0.23 0.005 0 0 0 2.13901
0.235 0.005 0 0 0 2.12517
0.24 0.005 0 0 0 2.11291
0.245 0.005 0 0 0 2.10205
0.25 0.005 0 0 0 2.09246
0.255 0.005 0 0 0 2.084
0.26 0.005 0 0 0 2.07654
0.265 0.005 0 0 0 2.06997
0.27 0.005 0 0 0 2.06418
0.275 0.005 0 0 0 2.05908
0.28 0.005 0 0 0 2.05458
0.285 0.005 0 0 0 2.05058
0.29 0.005 0 0 0 2.047
0.295 0.005 0 0 0 2.04378
0.3 0.005 0 0 0 2.04084
0.305 0.005 0 0 0 2.03811
0.31 0.005 0 0 0 2.03553
0.315 0.005 0 0 0 2.03305
0.32 0.005 0 0 0 2.0306
0.325 0.005 0 0 0 2.02815
0.33 0.005 0 0 0 2.02563
0.335 0.005 0 0 0 2.02301
0.34 0.005 0 0 0 2.02024
0.345 0.005 0 0 0 2.01728
0.35 0.005 0 0 0 2.0141
0.355 0.005 0 0 0 2.01065
0.36 0.005 0 0 0 2.00692
0.365 0.005 0 0 0 2.00287
0.37 0.005 0 0 0 1.99846
0.375 0.005 0 0 0 1.99368
0.38 0.005 0 0 0 1.98851
0.385 0.005 0 0 0 1.98292
0.39 0.005 0 0 0 1.97689
0.395 0.005 0 0 0 1.9704
0.4 0.005 0 0 0 1.96344
0.405 0.005 0 0 0 1.956
0.41 0.005 0 0 0 1.94806
0.415 0.005 0 0 0 1.93962
0.42 0.005 0 0 0 1.93066
0.425 0.005 0 0 0 1.92118
0.43 0.005 0 0 0 1.91117
0.435 0.005 0 0 0 1.90063
0.44 0.005 0 0 0 1.88956
0.445 0.005 0 0 0 1.87796
0.45 0.005 0 0 0 1.86582
0.455 0.005 0 0 0 1.85315
0.46 0.005 0 0 0 1.83996
0.465 0.005 0 0 0 1.82624
0.47 0.005 0 0 0 1.812
0.475 0.005 0 0 0 1.79725
0.48 0.005 0 0 0 1.782
0.485 0.005 0 0 0 1.76626
0.49 0.005 0 0 0 1.75003
0.495 0.005 0 0 0 1.73333
0.5 0.005 0 0 0 1.71617
0.505 0.005 0 0 0 1.69856
0.51 0.005 0 0 0 1.68051
0.515 0.005 0 0 0 1.66204
0.52 0.005 0 0 0 1.64316
0.525 0.005 0 0 0 1.62389
0.53 0.005 0 0 0 1.60424
0.535 0.005 0 0 0 1.58423
0.54 0.005 0 0 0 1.56387
0.545 0.005 0 0 0 1.54318
0.55 0.005 0 0 0 1.52218
0.555 0.005 0 0 0 1.50088
0.56 0.005 0 0 0 1.4793
0.565 0.005 0 0 0 1.45747
0.57 0.005 0 0 0 1.43538
0.575 0.005 0 0 0 1.41307
0.58 0.005 0 0 0 1.39055
0.585 0.005 0 0 0 1.36783
0.59 0.005 0 0 0 1.34494
0.595 0.005 0 0 0 1.32189
0.6 0.005 0 0 0 1.29869
0.605 0.005 0 0 0 1.27537
0.61 0.005 0 0 0 1.25194
0.615 0.005 0 0 0 1.22841
0.62 0.005 0 0 0 1.2048
0.625 0.005 0 0 0 1.18113
0.63 0.005 0 0 0 1.15741
0.635 0.005 0 0 0 1.13366
0.64 0.005 0 0 0 1.10989
0.645 0.005 0 0 0 1.0861
0.65 0.005 0 0 0 1.06233
0.655 0.005 0 0 0 1.03858
0.66 0.005 0 0 0 1.01486
0.665 0.005 0 0 0 0.99118
0.67 0.005 0 0 0 0.967561
0.675 0.005 0 0 0 0.944009
0.68 0.005 0 0 0 0.920537
0.685 0.005 0 0 0 0.897155
0.69 0.005 0 0 0 0.873873
0.695 0.005 0 0 0 0.850701
0.7 0.005 0 0 0 0.827648
0.705 0.005 0 0 0 0.804725
0.71 0.005 0 0 0 0.78194
0.715 0.005 0 0 0 0.759301
0.72 0.005 0 0 0 0.736817
0.725 0.005 0 0 0 0.714497
0.73 0.005 0 0 0 0.692347
0.735 0.005 0 0 0 0.670376
0.74 0.005 0 0 0 0.648591
0.745 0.005 0 0 0 0.627
0.75 0.005 0 0 0 0.60561
0.755 0.005 0 0 0 0.584427
0.76 0.005 0 0 0 0.563459
0.765 0.005 0 0 0 0.542713
0.77 0.005 0 0 0 0.522195
0.775 0.005 0 0 0 0.501913
0.78 0.005 0 0 0 0.481874
0.785 0.005 0 0 0 0.462084
0.79 0.005 0 0 0 0.44255
0.795 0.005 0 0 0 0.42328
0.8 0.005 0 0 0 0.404281
0.805 0.005 0 0 0 0.385561
0.81 0.005 0 0 0 0.367127
0.815 0.005 0 0 0 0.348987
0.82 0.005 0 0 0 0.33115
0.825 0.005 0 0 0 0.313623
0.83 0.005 0 0 0 0.296416
0.835 0.005 0 0 0 0.279538
0.84 0.005 0 0 0 0.262999
0.845 0.005 0 0 0 0.246808
0.85 0.005 0 0 0 0.230976
0.855 0.005 0 0 0 0.215514
0.86 0.005 0 0 0 0.200434
0.865 0.005 0 0 0 0.185747
0.87 0.005 0 0 0 0.171466
0.875 0.005 0 0 0 0.157605
0.88 0.005 0 0 0 0.144177
0.885 0.005 0 0 0 0.131198
0.89 0.005 0 0 0 0.118683
0.895 0.005 0 0 0 0.106649
0.9 0.005 0 0 0 0.0951126
0.905 0.005 0 0 0 0.0840925
0.91 0.005 0 0 0 0.0736082
0.915 0.005 0 0 0 0.0636802
0.92 0.005 0 0 0 0.05433
0.925 0.005 0 0 0 0.0455803
0.93 0.005 0 0 0 0.0374551
0.935 0.005 0 0 0 0.0299794
0.94 0.005 0 0 0 0.023179
0.945 0.005 0 0 0 0.0170807
0.95 0.005 0 0 0 0.0117115
0.955 0.005 0 0 0 0.00709815
0.96 0.005 0 0 0 0.00326577
0.965 0.005 0 0 0 0.00023615
0.97 0.005 0 0 0 -0.00197542
0.975 0.005 0 0 0 -0.00336543
0.98 0.005 0 0 0 -0.00395103
0.985 0.005 0 0 0 -0.00378569
0.99 0.005 0 0 0 -0.00298654
0.995 0.005 0 0 0 -0.00178115
1 0.005 0 0 0 -0.000576353
0 0.01 0 0 -0.000576353 0
0.005 0.01 0 0 0 -326.277
0.01 0.01 -0.179937 0.0774614 -0.000921538 -44.4866
0.015 0.01 -0.184423 -0.0352833 -0.000774614 9.44074
0.02 0.01 -0.155591 -0.0353853 -0.000568705 19.0588
0.025 0.01 -0.126624 -0.0246375 -0.000420762 18.969
0.03 0.01 -0.103409 -0.0164932 -0.00032233 16.8543
0.035 0.01 -0.08568 -0.0113135 -0.00025583 14.6003
0.04 0.01 -0.0721666 -0.00806222 -0.000209195 12.6368
0.045 0.01 -0.0617339 -0.00596043 -0.000175207 11.0118
0.05 0.01 -0.053545 -0.0045463 -0.000149591 9.68147
0.055 0.01 -0.0470102 -0.00355716 -0.000129744 8.5894
0.06 0.01 -0.0417163 -0.00284142 -0.000114019 7.68641
0.065 0.01 -0.0373702 -0.00230853 -0.00010133 6.9334
0.07 0.01 -0.0337602 -0.00190225 -9.0934e-05 6.30014
0.075 0.01 -0.0307308 -0.00158626 -8.23074e-05 5.76335
0.08 0.01 -0.0281658 -0.00133632 -7.50712e-05 5.30499
0.085 0.01 -0.0259767 -0.00113571 -6.89442e-05 4.91102
0.09 0.01 -0.0240953 -0.000972643 -6.3714e-05 4.57035
0.095 0.01 -0.0224683 -0.000838608 -5.92176e-05 4.27418
0.1 0.01 -0.0210536 -0.000727331 -5.53278e-05 4.01545
0.105 0.01 -0.0198173 -0.000634119 -5.19442e-05 3.78844
0.11 0.01 -0.0187323 -0.000555406 -4.89865e-05 3.58846
0.115 0.01 -0.0177764 -0.000488448 -4.639e-05 3.41169
0.12 0.01 -0.0169312 -0.000431107 -4.41019e-05 3.25494
0.125 0.01 -0.0161817 -0.0003817 -4.20788e-05 3.11555
0.13 0.01 -0.0155153 -0.000338891 -4.02848e-05 2.99129
0.135 0.01 -0.0149213 -0.000301607 -3.86898e-05 2.88029
0.14 0.01 -0.0143908 -0.000268982 -3.72686e-05 2.78092
0.145 0.01 -0.0139162 -0.00024031 -3.59999e-05 2.69184
0.15 0.01 -0.0134909 -0.000215012 -3.48655e-05 2.61186
0.155 0.01 -0.0131093 -0.00019261 -3.38497e-05 2.53997
0.16 0.01 -0.0127667 -0.000172707 -3.29393e-05 2.47529
0.165 0.01 -0.0124588 -0.00015497 -3.21226e-05 2.41706
0.17 0.01 -0.0121819 -0.000139122 -3.13896e-05 2.36459
0.175 0.01 -0.0119328 -0.000124928 -3.07313e-05 2.31731
0.18 0.01 -0.0117087 -0.000112186 -3.01403e-05 2.27469
0.185 0.01 -0.0115071 -0.000100727 -2.96095e-05 2.23627
0.19 0.01 -0.0113258 -9.04058e-05 -2.9133e-05 2.20163
0.195 0.01 -0.0111627 -8.10965e-05 -2.87054e-05 2.17043
0.2 0.01 -0.0110162 -7.26911e-05 -2.8322e-05 2.14232
0.205 0.01 -0.0108846 -6.50959e-05 -2.79785e-05 2.11702
0.21 0.01 -0.0107666 -5.82294e-05 -2.76711e-05 2.09425
0.215 0.01 -0.0106607 -5.20207e-05 -2.73963e-05 2.07378
0.22 0.01 -0.010566 -4.64074e-05 -2.71509e-05 2.05538
0.225 0.01 -0.0104812 -4.1335e-05 -2.69322e-05 2.03888
0.23 0.01 -0.0104055 -3.67553e-05 -2.67376e-05 2.02407
0.235 0.01 -0.010338 -3.26258e-05 -2.65648e-05 2.01079
0.24 0.01 -0.0102778 -2.89087e-05 -2.64115e-05 1.99891
0.245 0.01 -0.0102242 -2.55705e-05 -2.62758e-05 1.98826
0.25 0.01 -0.0101766 -2.25812e-05 -2.61558e-05 1.97873
0.255 0.01 -0.0101343 -1.99141e-05 -2.605e-05 1.9702
0.26 0.01 -0.0100966 -1.75451e-05 -2.59568e-05 1.96256
0.265 0.01 -0.0100632 -1.54526e-05 -2.58747e-05 1.95571
0.27 0.01 -0.0100335 -1.3617e-05 -2.58024e-05 1.94954
0.275 0.01 -0.0100069 -1.20206e-05 -2.57387e-05 1.94398
0.28 0.01 -0.00998317 -1.06472e-05 -2.56824e-05 1.93894
0.285 0.01 -0.00996179 -9.48216e-06 -2.56324e-05 1.93434
0.29 0.01 -0.00994239 -8.51189e-06 -2.55877e-05 1.93012
0.295 0.01 -0.00992462 -7.724e-06 -2.55474e-05 1.9262
0.3 0.01 -0.00990816 -7.10705e-06 -2.55106e-05 1.92253
0.305 0.01 -0.00989269 -6.65039e-06 -2.54765e-05 1.91903
0.31 0.01 -0.00987791 -6.34416e-06 -2.54443e-05 1.91567
0.315 0.01 -0.00986356 -6.1791e-06 -2.54133e-05 1.91239
0.32 0.01 -0.00984937 -6.14657e-06 -2.53828e-05 1.90913
0.325 0.01 -0.0098351 -6.2384e-06 -2.53521e-05 1.90585
0.33 0.01 -0.00982054 -6.4469e-06 -2.53206e-05 1.90252
0.335 0.01 -0.00980545 -6.76476e-06 -2.52878e-05 1.89909
0.34 0.01 -0.00978965 -7.18501e-06 -2.52532e-05 1.89552
0.345 0.01 -0.00977295 -7.70102e-06 -2.52162e-05 1.89178
0.35 0.01 -0.00975517 -8.30641e-06 -2.51764e-05 1.88783
0.355 0.01 -0.00973616 -8.99509e-06 -2.51334e-05 1.88366
0.36 0.01 -0.00971577 -9.76116e-06 -2.50868e-05 1.87921
0.365 0.01 -0.00969385 -1.05989e-05 -2.50361e-05 1.87449
0.37 0.01 -0.00967027 -1.15029e-05 -2.49811e-05 1.86945
0.375 0.01 -0.00964492 -1.24677e-05 -2.49213e-05 1.86407
0.38 0.01 -0.00961769 -1.34883e-05 -2.48567e-05 1.85835
0.385 0.01 -0.00958849 -1.45595e-05 -2.47868e-05 1.85225
0.39 0.01 -0.00955721 -1.56764e-05 -2.47114e-05 1.84576
0.395 0.01 -0.00952379 -1.68344e-05 -2.46303e-05 1.83887
0.4 0.01 -0.00948814 -1.80288e-05 -2.45433e-05 1.83156
0.405 0.01 -0.00945022 -1.9255e-05 -2.44503e-05 1.82383
0.41 0.01 -0.00940996 -2.05087e-05 -2.43511e-05 1.81565
0.415 0.01 -0.00936731 -2.17857e-05 -2.42455e-05 1.80703
0.42 0.01 -0.00932225 -2.30816e-05 -2.41336e-05 1.79796
0.425 0.01 -0.00927473 -2.43926e-05 -2.40151e-05 1.78844
0.43 0.01 -0.00922474 -2.57147e-05 -2.389e-05 1.77845
0.435 0.01 -0.00917226 -2.70441e-05 -2.37582e-05 1.76799
0.44 0.01 -0.00911728 -2.83772e-05 -2.36199e-05 1.75707
0.445 0.01 -0.0090598 -2.97103e-05 -2.34748e-05 1.74568
0.45 0.01 -0.00899982 -3.10402e-05 -2.33231e-05 1.73383
0.455 0.01 -0.00893736 -3.23634e-05 -2.31647e-05 1.72151
0.46 0.01 -0.00887243 -3.36768e-05 -2.29998e-05 1.70874
0.465 0.01 -0.00880505 -3.49775e-05 -2.28283e-05 1.69551
0.47 0.01 -0.00873526 -3.62625e-05 -2.26503e-05 1.68183
0.475 0.01 -0.00866307 -3.75291e-05 -2.2466e-05 1.66771
0.48 0.01 -0.00858854 -3.87747e-05 -2.22754e-05 1.65315
0.485 0.01 -0.00851171 -3.99968e-05 -2.20786e-05 1.63817
0.49 0.01 -0.00843261 -4.11932e-05 -2.18757e-05 1.62276
0.495 0.01 -0.00835131 -4.23617e-05 -2.1667e-05 1.60695
0.5 0.01 -0.00826786 -4.35003e-05 -2.14525e-05 1.59073
0.505 0.01 -0.00818232 -4.46071e-05 -2.12323e-05 1.57413
0.51 0.01 -0.00809474 -4.56804e-05 -2.10067e-05 1.55716
0.515 0.01 -0.00800519 -4.67186e-05 -2.07758e-05 1.53982
0.52 0.01 -0.00791375 -4.77204e-05 -2.05398e-05 1.52213
0.525 0.01 -0.00782048 -4.86844e-05 -2.02989e-05 1.5041
0.53 0.01 -0.00772545 -4.96096e-05 -2.00533e-05 1.48574
0.535 0.01 -0.00762873 -5.04949e-05 -1.98032e-05 1.46708
0.54 0.01 -0.00753041 -5.13396e-05 -1.95487e-05 1.44812
0.545 0.01 -0.00743056 -5.21429e-05 -1.92901e-05 1.42887
0.55 0.01 -0.00732926 -5.29042e-05 -1.90275e-05 1.40936
0.555 0.01 -0.00722658 -5.36231e-05 -1.87613e-05 1.3896
0.56 0.01 -0.00712261 -5.42993e-05 -1.84916e-05 1.3696
0.565 0.01 -0.00701743 -5.49326e-05 -1.82186e-05 1.34937
0.57 0.01 -0.00691111 -5.5523e-05 -1.79425e-05 1.32894
0.575 0.01 -0.00680374 -5.60704e-05 -1.76636e-05 1.30831
0.58 0.01 -0.0066954 -5.6575e-05 -1.73821e-05 1.2875
0.585 0.01 -0.00658617 -5.70371e-05 -1.70982e-05 1.26653
0.59 0.01 -0.00647612 -5.7457e-05 -1.6812e-05 1.24542
0.595 0.01 -0.00636534 -5.78351e-05 -1.65238e-05 1.22416
0.6 0.01 -0.0062539 -5.8172e-05 -1.62339e-05 1.20279
0.605 0.01 -0.00614188 -5.84681e-05 -1.59424e-05 1.18132
0.61 0.01 -0.00602935 -5.87242e-05 -1.56495e-05 1.15975
0.615 0.01 -0.0059164 -5.89411e-05 -1.53554e-05 1.1381
0.62 0.01 -0.00580308 -5.91194e-05 -1.50603e-05 1.11639
0.625 0.01 -0.00568948 -5.92599e-05 -1.47644e-05 1.09463
0.63 0.01 -0.00557566 -5.93637e-05 -1.44679e-05 1.07282
0.635 0.01 -0.00546169 -5.94315e-05 -1.4171e-05 1.051
0.64 0.01 -0.00534764 -5.94643e-05 -1.38738e-05 1.02916
0.645 0.01 -0.00523357 -5.94631e-05 -1.35765e-05 1.00732
0.65 0.01 -0.00511954 -5.94288e-05 -1.32793e-05 0.985486
0.655 0.01 -0.00500562 -5.93624e-05 -1.29824e-05 0.963677
0.66 0.01 -0.00489186 -5.9265e-05 -1.26859e-05 0.941901
0.665 0.01 -0.00477832 -5.91375e-05 -1.23899e-05 0.920167
0.67 0.01 -0.00466505 -5.89808e-05 -1.20947e-05 0.898488
0.675 0.01 -0.00455212 -5.87961e-05 -1.18003e-05 0.876872
0.68 0.01 -0.00443957 -5.85842e-05 -1.15069e-05 0.855329
0.685 0.01 -0.00432745 -5.8346e-05 -1.12146e-05 0.833868
0.69 0.01 -0.00421581 -5.80826e-05 -1.09235e-05 0.812499
0.695 0.01 -0.00410469 -5.77947e-05 -1.06339e-05 0.791231
0.7 0.01 -0.00399415 -5.74832e-05 -1.03457e-05 0.770071
0.705 0.01 -0.00388422 -5.7149e-05 -1.00592e-05 0.749028
0.71 0.01 -0.00377495 -5.67927e-05 -9.77437e-06 0.72811
0.715 0.01 -0.00366638 -5.64151e-05 -9.49138e-06 0.707324
0.72 0.01 -0.00355855 -5.60169e-05 -9.21032e-06 0.686679
0.725 0.01 -0.00345149 -5.55987e-05 -8.93131e-06 0.66618
0.73 0.01 -0.00334524 -5.51611e-05 -8.65444e-06 0.645836
0.735 0.01 -0.00323985 -5.47044e-05 -8.37979e-06 0.625653
0.74 0.01 -0.00313534 -5.42293e-05 -8.10748e-06 0.605637
0.745 0.01 -0.00303175 -5.3736e-05 -7.83759e-06 0.585796
0.75 0.01 -0.00292911 -5.32249e-05 -7.5702e-06 0.566136
0.755 0.01 -0.00282746 -5.26962e-05 -7.30541e-06 0.546663
0.76 0.01 -0.00272684 -5.21501e-05 -7.04331e-06 0.527383
0.765 0.01 -0.00262726 -5.15867e-05 -6.78398e-06 0.508304
0.77 0.01 -0.00252878 -5.10061e-05 -6.5275e-06 0.489431
0.775 0.01 -0.00243141 -5.04081e-05 -6.27397e-06 0.470771
0.78 0.01 -0.0023352 -4.97928e-05 -6.02347e-06 0.452329
0.785 0.01 -0.00224018 -4.91599e-05 -5.77609e-06 0.434113
0.79 0.01 -0.00214637 -4.85092e-05 -5.53192e-06 0.416129
0.795 0.01 -0.00205383 -4.78404e-05 -5.29104e-06 0.398384
0.8 0.01 -0.00196257 -4.71531e-05 -5.05355e-06 0.380884
0.805 0.01 -0.00187264 -4.64467e-05 -4.81955e-06 0.363637
0.81 0.01 -0.00178408 -4.57208e-05 -4.58912e-06 0.346649
0.815 0.01 -0.00169691 -4.49747e-05 -4.36237e-06 0.329929
0.82 0.01 -0.00161119 -4.42078e-05 -4.1394e-06 0.313483
0.825 0.01 -0.00152696 -4.34192e-05 -3.92031e-06 0.297319
0.83 0.01 -0.00144425 -4.26081e-05 -3.70522e-06 0.281447
0.835 0.01 -0.00136311 -4.17736e-05 -3.49425e-06 0.265874
0.84 0.01 -0.00128359 -4.09145e-05 -3.2875e-06 0.250609
0.845 0.01 -0.00120573 -4.00299e-05 -3.08511e-06 0.235662
0.85 0.01 -0.00112959 -3.91185e-05 -2.88721e-06 0.221043
0.855 0.01 -0.00105521 -3.81791e-05 -2.69394e-06 0.206761
0.86 0.01 -0.000982663 -3.72101e-05 -2.50543e-06 0.192828
0.865 0.01 -0.000911996 -3.62102e-05 -2.32184e-06 0.179255
0.87 0.01 -0.000843271 -3.51778e-05 -2.14333e-06 0.166052
0.875 0.01 -0.000776555 -3.41111e-05 -1.97006e-06 0.153234
0.88 0.01 -0.000711912 -3.30083e-05 -1.80222e-06 0.140812
0.885 0.01 -0.000649416 -3.18675e-05 -1.63998e-06 0.1288
0.89 0.01 -0.000589139 -3.06865e-05 -1.48354e-06 0.117213
0.895 0.01 -0.000531161 -2.94632e-05 -1.33311e-06 0.106065
0.9 0.01 -0.000475564 -2.81952e-05 -1.1889e-06 0.0953715
0.905 0.01 -0.000422434 -2.688e-05 -1.05115e-06 0.0851493
0.91 0.01 -0.000371863 -2.5515e-05 -9.20098e-07 0.0754153
0.915 0.01 -0.000323945 -2.40973e-05 -7.95997e-07 0.0661871
0.92 0.01 -0.000278781 -2.26243e-05 -6.79119e-07 0.0574832
0.925 0.01 -0.000236476 -2.1093e-05 -5.69748e-07 0.0493225
0.93 0.01 -0.000197136 -1.95006e-05 -4.68183e-07 0.0417245
0.935 0.01 -0.000160875 -1.78446e-05 -3.74736e-07 0.0347087
0.94 0.01 -0.000127806 -1.61228e-05 -2.89732e-07 0.028295
0.945 0.01 -9.80452e-05 -1.43338e-05 -2.13503e-07 0.0225022
0.95 0.01 -7.17045e-05 -1.24777e-05 -1.46389e-07 0.0173485
0.955 0.01 -4.88918e-05 -1.05567e-05 -8.87227e-08 0.0128493
0.96 0.01 -2.97019e-05 -8.57708e-06 -4.08184e-08 0.00901659
0.965 0.01 -1.42078e-05 -6.55112e-06 -2.9488e-09 0.00585614
0.97 0.01 -2.44497e-06 -4.50166e-06 2.46953e-08 0.00336431
0.975 0.01 5.6117e-06 -2.46926e-06 4.20698e-08 0.00152303
0.98 0.01 1.00852e-05 -5.25136e-07 4.93892e-08 0.000292446
0.985 0.01 1.12543e-05 1.20574e-06 4.73219e-08 -0.000399135
0.99 0.01 9.64262e-06 2.50576e-06 3.73322e-08 -0.000667396
0.995 0.01 6.15009e-06 3.01278e-06 2.22644e-08 -0.000679214
1 0.01 2.22308e-06 2.22644e-06 7.20439e-09 -0.000627118
0 0.015 0 0 -0.00177846 0
0.005 0.015 0 0 0 -256.05
0.01 0.015 -0.152603 0.184423 -0.00179937 -79.3665
0.015 0.015 -0.205572 -0.0243459 -0.00184423 -16.6677
0.02 0.015 -0.203611 -0.0577997 -0.00155591 2.41297
0.025 0.015 -0.183638 -0.0521828 -0.00126624 8.11861
0.03 0.015 -0.16062 -0.0409435 -0.00103409 9.50207
0.035 0.015 -0.139519 -0.0312421 -0.0008568 9.41609
0.04 0.015 -0.121524 -0.0239461 -0.000721665 8.84431
0.045 0.015 -0.106549 -0.0186216 -0.000617339 8.14672
0.05 0.015 -0.09416 -0.0147237 -0.000535449 7.45702
0.055 0.015 -0.0838858 -0.0118286 -0.000470102 6.8221
0.06 0.015 -0.0753176 -0.00963997 -0.000417163 6.25464
0.065 0.015 -0.0681229 -0.00795611 -0.000373702 5.75391
0.07 0.015 -0.0620385 -0.00663934 -0.000337602 5.31425
0.075 0.015 -0.0568574 -0.00559436 -0.000307308 4.92867
0.08 0.015 -0.0524169 -0.0047541 -0.000281658 4.59023
0.085 0.015 -0.0485883 -0.00407045 -0.000259766 4.29263
0.09 0.015 -0.0452691 -0.00350832 -0.000240953 4.03031
0.095 0.015 -0.0423771 -0.00304167 -0.000224683 3.79851
0.1 0.015 -0.0398458 -0.00265094 -0.000210535 3.59312
0.105 0.015 -0.0376212 -0.00232119 -0.000198173 3.41069
0.11 0.015 -0.0356588 -0.0020409 -0.000187323 3.24823
0.115 0.015 -0.033922 -0.00180107 -0.000177764 3.10324
0.12 0.015 -0.0323802 -0.00159462 -0.000169312 2.97355
0.125 0.015 -0.0310079 -0.0014159 -0.000161817 2.85734
0.13 0.015 -0.0297836 -0.0012604 -0.000155153 2.75301
0.135 0.015 -0.0286891 -0.00112447 -0.000149213 2.6592
0.14 0.015 -0.0277087 -0.00100511 -0.000143908 2.57473
0.145 0.015 -0.0268294 -0.000899886 -0.000139161 2.49858
0.15 0.015 -0.0260395 -0.000806785 -0.000134909 2.42986
0.155 0.015 -0.0253293 -0.000724132 -0.000131093 2.36779
0.16 0.015 -0.02469 -0.000650528 -0.000127667 2.31168
0.165 0.015 -0.0241143 -0.000584799 -0.000124588 2.26093
0.17 0.015 -0.0235956 -0.000525955 -0.000121819 2.21501
0.175 0.015 -0.023128 -0.000473157 -0.000119328 2.17344
0.18 0.015 -0.0227064 -0.00042569 -0.000117087 2.13581
0.185 0.015 -0.0223264 -0.000382942 -0.000115071 2.10174
0.19 0.015 -0.0219839 -0.000344388 -0.000113258 2.07089
0.195 0.015 -0.0216753 -0.000309574 -0.000111627 2.04296
0.2 0.015 -0.0213973 -0.000278109 -0.000110162 2.01768
0.205 0.015 -0.0211471 -0.000249651 -0.000108846 1.99481
0.21 0.015 -0.020922 -0.000223903 -0.000107666 1.97411
0.215 0.015 -0.0207197 -0.000200607 -0.000106608 1.9554
0.22 0.015 -0.020538 -0.000179533 -0.00010566 1.93847
0.225 0.015 -0.0203749 -0.000160481 -0.000104812 1.92318
0.23 0.015 -0.0202288 -0.000143274 -0.000104055 1.90935
0.235 0.015 -0.0200978 -0.000127755 -0.00010338 1.89685
0.24 0.015 -0.0199806 -0.000113783 -0.000102778 1.88554
0.245 0.015 -0.0198757 -0.000101236 -0.000102243 1.87532
0.25 0.015 -0.0197819 -9.00005e-05 -0.000101766 1.86605
0.255 0.015 -0.019698 -7.99783e-05 -0.000101343 1.85765
0.26 0.015 -0.0196229 -7.10792e-05 -0.000100967 1.85002
0.265 0.015 -0.0195556 -6.32224e-05 -0.000100633 1.84307
0.27 0.015 -0.0194951 -5.63346e-05 -0.000100335 1.83671
0.275 0.015 -0.0194407 -5.03492e-05 -0.00010007 1.83086
0.28 0.015 -0.0193913 -4.52056e-05 -9.98323e-05 1.82547
0.285 0.015 -0.0193464 -4.08483e-05 -9.96185e-05 1.82045
0.29 0.015 -0.0193051 -3.72263e-05 -9.94245e-05 1.81575
0.295 0.015 -0.0192669 -3.42928e-05 -9.92469e-05 1.8113
0.3 0.015 -0.019231 -3.20044e-05 -9.90823e-05 1.80706
0.305 0.015 -0.019197 -3.03208e-05 -9.89276e-05 1.80297
0.31 0.015 -0.0191642 -2.92045e-05 -9.87799e-05 1.79898
0.315 0.015 -0.0191321 -2.86205e-05 -9.86364e-05 1.79504
0.32 0.015 -0.0191003 -2.85357e-05 -9.84945e-05 1.79113
0.325 0.015 -0.0190683 -2.89193e-05 -9.83519e-05 1.78718
0.33 0.015 -0.0190356 -2.97418e-05 -9.82063e-05 1.78318
0.335 0.015 -0.019002 -3.09754e-05 -9.80554e-05 1.77908
0.34 0.015 -0.0189669 -3.25936e-05 -9.78975e-05 1.77485
0.345 0.015 -0.0189301 -3.4571e-05 -9.77305e-05 1.77046
0.35 0.015 -0.0188913 -3.68835e-05 -9.75527e-05 1.76588
0.355 0.015 -0.01885 -3.95078e-05 -9.73627e-05 1.76109
0.36 0.015 -0.0188061 -4.24214e-05 -9.71587e-05 1.75607
0.365 0.015 -0.0187593 -4.56026e-05 -9.69395e-05 1.75078
0.37 0.015 -0.0187094 -4.90306e-05 -9.67038e-05 1.74521
0.375 0.015 -0.0186561 -5.26851e-05 -9.64503e-05 1.73935
0.38 0.015 -0.0185993 -5.65465e-05 -9.61781e-05 1.73317
0.385 0.015 -0.0185386 -6.05957e-05 -9.5886e-05 1.72666
0.39 0.015 -0.0184741 -6.48142e-05 -9.55733e-05 1.71981
0.395 0.015 -0.0184055 -6.91839e-05 -9.52391e-05 1.7126
0.4 0.015 -0.0183328 -7.36873e-05 -9.48826e-05 1.70503
0.405 0.015 -0.0182557 -7.83075e-05 -9.45034e-05 1.69707
0.41 0.015 -0.0181742 -8.30279e-05 -9.41008e-05 1.68874
0.415 0.015 -0.0180883 -8.78324e-05 -9.36744e-05 1.68001
0.42 0.015 -0.0179978 -9.27054e-05 -9.32237e-05 1.67089
0.425 0.015 -0.0179027 -9.76318e-05 -9.27486e-05 1.66137
0.43 0.015 -0.0178029 -0.000102597 -9.22487e-05 1.65144
0.435 0.015 -0.0176985 -0.000107586 -9.17239e-05 1.64111
0.44 0.015 -0.0175894 -0.000112587 -9.11741e-05 1.63037
0.445 0.015 -0.0174756 -0.000117584 -9.05993e-05 1.61923
0.45 0.015 -0.0173571 -0.000122567 -8.99995e-05 1.60769
0.455 0.015 -0.0172339 -0.000127522 -8.93749e-05 1.59575
0.46 0.015 -0.0171062 -0.000132438 -8.87256e-05 1.58341
0.465 0.015 -0.0169739 -0.000137304 -8.80518e-05 1.57068
0.47 0.015 -0.016837 -0.000142109 -8.73539e-05 1.55756
0.475 0.015 -0.0166958 -0.000146842 -8.6632e-05 1.54405
0.48 0.015 -0.0165501 -0.000151495 -8.58867e-05 1.53018
0.485 0.015 -0.0164001 -0.000156058 -8.51184e-05 1.51593
0.49 0.015 -0.0162459 -0.000160523 -8.43274e-05 1.50133
0.495 0.015 -0.0160877 -0.000164881 -8.35144e-05 1.48638
0.5 0.015 -0.0159254 -0.000169126 -8.26799e-05 1.47108
0.505 0.015 -0.0157592 -0.00017325 -8.18244e-05 1.45546
0.51 0.015 -0.0155892 -0.000177248 -8.09486e-05 1.43951
0.515 0.015 -0.0154156 -0.000181113 -8.00532e-05 1.42326
0.52 0.015 -0.0152384 -0.000184841 -7.91387e-05 1.4067
0.525 0.015 -0.0150579 -0.000188426 -7.8206e-05 1.38986
0.53 0.015 -0.0148741 -0.000191866 -7.72557e-05 1.37274
0.535 0.015 -0.0146871 -0.000195155 -7.62885e-05 1.35536
0.54 0.015 -0.0144972 -0.000198292 -7.53053e-05 1.33773
0.545 0.015 -0.0143045 -0.000201273 -7.43068e-05 1.31986
0.55 0.015 -0.0141091 -0.000204097 -7.32937e-05 1.30176
0.555 0.015 -0.0139111 -0.000206762 -7.22669e-05 1.28345
0.56 0.015 -0.0137108 -0.000209267 -7.12272e-05 1.26494
0.565 0.015 -0.0135082 -0.000211611 -7.01753e-05 1.24625
0.57 0.015 -0.0133035 -0.000213795 -6.91122e-05 1.22738
0.575 0.015 -0.0130969 -0.000215818 -6.80385e-05 1.20834
0.58 0.015 -0.0128884 -0.000217681 -6.6955e-05 1.18916
0.585 0.015 -0.0126784 -0.000219384 -6.58627e-05 1.16985
0.59 0.015 -0.0124668 -0.00022093 -6.47622e-05 1.15041
0.595 0.015 -0.0122539 -0.00022232 -6.36543e-05 1.13085
0.6 0.015 -0.0120399 -0.000223556 -6.25399e-05 1.11121
0.605 0.015 -0.0118247 -0.00022464 -6.14197e-05 1.09147
0.61 0.015 -0.0116086 -0.000225574 -6.02945e-05 1.07166
0.615 0.015 -0.0113918 -0.000226362 -5.91649e-05 1.05179
0.62 0.015 -0.0111743 -0.000227006 -5.80317e-05 1.03187
0.625 0.015 -0.0109563 -0.000227509 -5.68957e-05 1.01191
0.63 0.015 -0.0107379 -0.000227874 -5.57574e-05 0.991918
0.635 0.015 -0.0105193 -0.000228105 -5.46177e-05 0.971912
0.64 0.015 -0.0103005 -0.000228205 -5.34772e-05 0.951898
0.645 0.015 -0.0100817 -0.000228178 -5.23364e-05 0.931889
0.65 0.015 -0.00986303 -0.000228028 -5.11961e-05 0.911893
0.655 0.015 -0.00964457 -0.000227757 -5.00569e-05 0.89192
0.66 0.015 -0.00942644 -0.00022737 -4.89192e-05 0.871981
0.665 0.015 -0.00920875 -0.000226871 -4.77838e-05 0.852083
0.67 0.015 -0.0089916 -0.000226263 -4.66512e-05 0.832236
0.675 0.015 -0.00877508 -0.00022555 -4.55218e-05 0.812449
0.68 0.015 -0.00855931 -0.000224734 -4.43963e-05 0.79273
0.685 0.015 -0.00834436 -0.000223821 -4.32751e-05 0.773087
0.69 0.015 -0.00813034 -0.000222812 -4.21586e-05 0.753527
0.695 0.015 -0.00791732 -0.000221712 -4.10475e-05 0.73406
0.7 0.015 -0.00770539 -0.000220523 -3.9942e-05 0.714691
0.705 0.015 -0.00749464 -0.000219248 -3.88427e-05 0.695428
0.71 0.015 -0.00728515 -0.000217891 -3.775e-05 0.676278
0.715 0.015 -0.00707698 -0.000216453 -3.66643e-05 0.657247
0.72 0.015 -0.00687022 -0.000214937 -3.55859e-05 0.638343
0.725 0.015 -0.00666493 -0.000213346 -3.45153e-05 0.619572
0.73 0.015 -0.0064612 -0.000211681 -3.34528e-05 0.600939
0.735 0.015 -0.00625907 -0.000209944 -3.23989e-05 0.582452
0.74 0.015 -0.00605864 -0.000208137 -3.13537e-05 0.564115
0.745 0.015 -0.00585995 -0.000206261 -3.03178e-05 0.545936
0.75 0.015 -0.00566307 -0.000204318 -2.92914e-05 0.527919
0.755 0.015 -0.00546807 -0.000202307 -2.82749e-05 0.510071
0.76 0.015 -0.00527502 -0.000200229 -2.72686e-05 0.492396
0.765 0.015 -0.00508396 -0.000198086 -2.62729e-05 0.474903
0.77 0.015 -0.00489498 -0.000195877 -2.5288e-05 0.457594
0.775 0.015 -0.00470813 -0.000193601 -2.43143e-05 0.440478
0.78 0.015 -0.00452347 -0.000191258 -2.33522e-05 0.423559
0.785 0.015 -0.00434107 -0.000188849 -2.2402e-05 0.406843
0.79 0.015 -0.00416099 -0.00018637 -2.14639e-05 0.390336
0.795 0.015 -0.00398331 -0.000183822 -2.05384e-05 0.374046