Title=" Lid Driven Flow"
VARIABLES="X","Y","U","V","psi","xi"
ZONE T= "BOX", I= 201, J=201, F=POINT
0 0 0 0 0.00264147 0
0.005 0 0 0 0 0
0.01 0 0 0 0 0
0.015 0 0 0 0 161.891
0.02 0 0 0 0 176.124
0.025 0 0 0 0 155.608
0.03 0 0 0 0 133.222
0.035 0 0 0 0 115.707
0.04 0 0 0 0 102.857
0.045 0 0 0 0 93.3271
0.05 0 0 0 0 86.0066
0.055 0 0 0 0 80.1621
0.06 0 0 0 0 75.3352
0.065 0 0 0 0 71.2369
0.07 0 0 0 0 67.68
0.075 0 0 0 0 64.538
0.08 0 0 0 0 61.7229
0.085 0 0 0 0 59.1716
0.09 0 0 0 0 56.8375
0.095 0 0 0 0 54.6858
0.1 0 0 0 0 52.6897
0.105 0 0 0 0 50.8284
0.11 0 0 0 0 49.0855
0.115 0 0 0 0 47.4478
0.12 0 0 0 0 45.9045
0.125 0 0 0 0 44.4467
0.13 0 0 0 0 43.0668
0.135 0 0 0 0 41.7585
0.14 0 0 0 0 40.5162
0.145 0 0 0 0 39.335
0.15 0 0 0 0 38.2106
0.155 0 0 0 0 37.1391
0.16 0 0 0 0 36.117
0.165 0 0 0 0 35.141
0.17 0 0 0 0 34.2083
0.175 0 0 0 0 33.3161
0.18 0 0 0 0 32.4617
0.185 0 0 0 0 31.6428
0.19 0 0 0 0 30.8572
0.195 0 0 0 0 30.1028
0.2 0 0 0 0 29.3775
0.205 0 0 0 0 28.6794
0.21 0 0 0 0 28.0069
0.215 0 0 0 0 27.3581
0.22 0 0 0 0 26.7316
0.225 0 0 0 0 26.1258
0.23 0 0 0 0 25.5393
0.235 0 0 0 0 24.9708
0.24 0 0 0 0 24.4189
0.245 0 0 0 0 23.8826
0.25 0 0 0 0 23.3606
0.255 0 0 0 0 22.8519
0.26 0 0 0 0 22.3555
0.265 0 0 0 0 21.8705
0.27 0 0 0 0 21.396
0.275 0 0 0 0 20.9311
0.28 0 0 0 0 20.4752
0.285 0 0 0 0 20.0274
0.29 0 0 0 0 19.5871
0.295 0 0 0 0 19.1537
0.3 0 0 0 0 18.7267
0.305 0 0 0 0 18.3054
0.31 0 0 0 0 17.8895
0.315 0 0 0 0 17.4784
0.32 0 0 0 0 17.0718
0.325 0 0 0 0 16.6694
0.33 0 0 0 0 16.2708
0.335 0 0 0 0 15.8757
0.34 0 0 0 0 15.4838
0.345 0 0 0 0 15.0951
0.35 0 0 0 0 14.7093
0.355 0 0 0 0 14.3262
0.36 0 0 0 0 13.9457
0.365 0 0 0 0 13.5678
0.37 0 0 0 0 13.1924
0.375 0 0 0 0 12.8195
0.38 0 0 0 0 12.449
0.385 0 0 0 0 12.0811
0.39 0 0 0 0 11.7157
0.395 0 0 0 0 11.3529
0.4 0 0 0 0 10.9927
0.405 0 0 0 0 10.6354
0.41 0 0 0 0 10.2811
0.415 0 0 0 0 9.92981
0.42 0 0 0 0 9.58177
0.425 0 0 0 0 9.23715
0.43 0 0 0 0 8.89614
0.435 0 0 0 0 8.55892
0.44 0 0 0 0 8.2257
0.445 0 0 0 0 7.89671
0.45 0 0 0 0 7.57214
0.455 0 0 0 0 7.25224
0.46 0 0 0 0 6.9372
0.465 0 0 0 0 6.62728
0.47 0 0 0 0 6.32267
0.475 0 0 0 0 6.02361
0.48 0 0 0 0 5.7303
0.485 0 0 0 0 5.44295
0.49 0 0 0 0 5.16178
0.495 0 0 0 0 4.88695
0.5 0 0 0 0 4.61866
0.505 0 0 0 0 4.35707
0.51 0 0 0 0 4.10233
0.515 0 0 0 0 3.8546
0.52 0 0 0 0 3.61398
0.525 0 0 0 0 3.38059
0.53 0 0 0 0 3.15453
0.535 0 0 0 0 2.93586
0.54 0 0 0 0 2.72464
0.545 0 0 0 0 2.52092
0.55 0 0 0 0 2.32472
0.555 0 0 0 0 2.13603
0.56 0 0 0 0 1.95484
0.565 0 0 0 0 1.78113
0.57 0 0 0 0 1.61483
0.575 0 0 0 0 1.45589
0.58 0 0 0 0 1.30423
0.585 0 0 0 0 1.15974
0.59 0 0 0 0 1.02231
0.595 0 0 0 0 0.891826
0.6 0 0 0 0 0.768142
0.605 0 0 0 0 0.651111
0.61 0 0 0 0 0.540574
0.615 0 0 0 0 0.436362
0.62 0 0 0 0 0.338299
0.625 0 0 0 0 0.246201
0.63 0 0 0 0 0.159878
0.635 0 0 0 0 0.0791358
0.64 0 0 0 0 0.003775
0.645 0 0 0 0 -0.0664058
0.65 0 0 0 0 -0.13161
0.655 0 0 0 0 -0.192044
0.66 0 0 0 0 -0.247912
0.665 0 0 0 0 -0.29942
0.67 0 0 0 0 -0.346774
0.675 0 0 0 0 -0.390176
0.68 0 0 0 0 -0.42983
0.685 0 0 0 0 -0.465935
0.69 0 0 0 0 -0.49869
0.695 0 0 0 0 -0.528289
0.7 0 0 0 0 -0.554924
0.705 0 0 0 0 -0.578784
0.71 0 0 0 0 -0.600054
0.715 0 0 0 0 -0.618913
0.72 0 0 0 0 -0.635537
0.725 0 0 0 0 -0.650096
0.73 0 0 0 0 -0.662753
0.735 0 0 0 0 -0.673663
0.74 0 0 0 0 -0.682975
0.745 0 0 0 0 -0.690828
0.75 0 0 0 0 -0.697352
0.755 0 0 0 0 -0.702666
0.76 0 0 0 0 -0.706878
0.765 0 0 0 0 -0.710083
0.77 0 0 0 0 -0.712364
0.775 0 0 0 0 -0.713791
0.78 0 0 0 0 -0.714419
0.785 0 0 0 0 -0.71429
0.79 0 0 0 0 -0.713433
0.795 0 0 0 0 -0.711863
0.8 0 0 0 0 -0.709581
0.805 0 0 0 0 -0.706576
0.81 0 0 0 0 -0.702827
0.815 0 0 0 0 -0.6983
0.82 0 0 0 0 -0.692955
0.825 0 0 0 0 -0.68674
0.83 0 0 0 0 -0.679602
0.835 0 0 0 0 -0.67148
0.84 0 0 0 0 -0.662312
0.845 0 0 0 0 -0.652035
0.85 0 0 0 0 -0.640588
0.855 0 0 0 0 -0.627912
0.86 0 0 0 0 -0.613957
0.865 0 0 0 0 -0.598677
0.87 0 0 0 0 -0.582038
0.875 0 0 0 0 -0.564016
0.88 0 0 0 0 -0.544602
0.885 0 0 0 0 -0.523801
0.89 0 0 0 0 -0.501635
0.895 0 0 0 0 -0.478146
0.9 0 0 0 0 -0.453394
0.905 0 0 0 0 -0.427462
0.91 0 0 0 0 -0.400453
0.915 0 0 0 0 -0.372494
0.92 0 0 0 0 -0.343736
0.925 0 0 0 0 -0.314355
0.93 0 0 0 0 -0.284551
0.935 0 0 0 0 -0.25455
0.94 0 0 0 0 -0.224604
0.945 0 0 0 0 -0.19499
0.95 0 0 0 0 -0.166014
0.955 0 0 0 0 -0.138006
0.96 0 0 0 0 -0.111327
0.965 0 0 0 0 -0.0863632
0.97 0 0 0 0 -0.0635287
0.975 0 0 0 0 -0.0432635
0.98 0 0 0 0 -0.0260265
0.985 0 0 0 0 -0.0122801
0.99 0 0 0 0 -0.00245198
0.995 0 0 0 0 0.00315506
1 0 0 0 0 0.00457261
0 0.005 0 0 0 0
0.005 0.005 0 0 0 0
0.01 0.005 0 0 0 73.7276
0.015 0.005 0 0 0 62.0529
0.02 0.005 0 0 0 45.6843
0.025 0.005 0 0 0 33.9055
0.03 0.005 0 0 0 26.0103
0.035 0.005 0 0 0 20.5975
0.04 0.005 0 0 0 16.7218
0.045 0.005 0 0 0 13.8279
0.05 0.005 0 0 0 11.5924
0.055 0.005 0 0 0 9.8212
0.06 0.005 0 0 0 8.3917
0.065 0.005 0 0 0 7.22268
0.07 0.005 0 0 0 6.25763
0.075 0.005 0 0 0 5.45557
0.08 0.005 0 0 0 4.78577
0.085 0.005 0 0 0 4.22453
0.09 0.005 0 0 0 3.75319
0.095 0.005 0 0 0 3.35681
0.1 0.005 0 0 0 3.0233
0.105 0.005 0 0 0 2.74274
0.11 0.005 0 0 0 2.507
0.115 0.005 0 0 0 2.3093
0.12 0.005 0 0 0 2.14403
0.125 0.005 0 0 0 2.00648
0.13 0.005 0 0 0 1.89275
0.135 0.005 0 0 0 1.79952
0.14 0.005 0 0 0 1.72403
0.145 0.005 0 0 0 1.66396
0.15 0.005 0 0 0 1.61732
0.155 0.005 0 0 0 1.58247
0.16 0.005 0 0 0 1.558
0.165 0.005 0 0 0 1.54272
0.17 0.005 0 0 0 1.53563
0.175 0.005 0 0 0 1.53587
0.18 0.005 0 0 0 1.54271
0.185 0.005 0 0 0 1.55553
0.19 0.005 0 0 0 1.5738
0.195 0.005 0 0 0 1.59707
0.2 0.005 0 0 0 1.62494
0.205 0.005 0 0 0 1.65708
0.21 0.005 0 0 0 1.69319
0.215 0.005 0 0 0 1.733
0.22 0.005 0 0 0 1.7763
0.225 0.005 0 0 0 1.82288
0.23 0.005 0 0 0 1.87256
0.235 0.005 0 0 0 1.92516
0.24 0.005 0 0 0 1.98053
0.245 0.005 0 0 0 2.03853
0.25 0.005 0 0 0 2.09903
0.255 0.005 0 0 0 2.16189
0.26 0.005 0 0 0 2.22699
0.265 0.005 0 0 0 2.2942
0.27 0.005 0 0 0 2.36341
0.275 0.005 0 0 0 2.43449
0.28 0.005 0 0 0 2.50732
0.285 0.005 0 0 0 2.58178
0.29 0.005 0 0 0 2.65774
0.295 0.005 0 0 0 2.73509
0.3 0.005 0 0 0 2.81368
0.305 0.005 0 0 0 2.89339
0.31 0.005 0 0 0 2.97409
0.315 0.005 0 0 0 3.05564
0.32 0.005 0 0 0 3.13789
0.325 0.005 0 0 0 3.2207
0.33 0.005 0 0 0 3.30393
0.335 0.005 0 0 0 3.38742
0.34 0.005 0 0 0 3.47103
0.345 0.005 0 0 0 3.55458
0.35 0.005 0 0 0 3.63793
0.355 0.005 0 0 0 3.72091
0.36 0.005 0 0 0 3.80336
0.365 0.005 0 0 0 3.8851
0.37 0.005 0 0 0 3.96598
0.375 0.005 0 0 0 4.04582
0.38 0.005 0 0 0 4.12444
0.385 0.005 0 0 0 4.20169
0.39 0.005 0 0 0 4.27738
0.395 0.005 0 0 0 4.35135
0.4 0.005 0 0 0 4.42341
0.405 0.005 0 0 0 4.49341
0.41 0.005 0 0 0 4.56117
0.415 0.005 0 0 0 4.62653
0.42 0.005 0 0 0 4.68932
0.425 0.005 0 0 0 4.74938
0.43 0.005 0 0 0 4.80655
0.435 0.005 0 0 0 4.86068
0.44 0.005 0 0 0 4.91162
0.445 0.005 0 0 0 4.95922
0.45 0.005 0 0 0 5.00334
0.455 0.005 0 0 0 5.04386
0.46 0.005 0 0 0 5.08063
0.465 0.005 0 0 0 5.11355
0.47 0.005 0 0 0 5.1425
0.475 0.005 0 0 0 5.16737
0.48 0.005 0 0 0 5.18807
0.485 0.005 0 0 0 5.20451
0.49 0.005 0 0 0 5.21661
0.495 0.005 0 0 0 5.2243
0.5 0.005 0 0 0 5.22752
0.505 0.005 0 0 0 5.22623
0.51 0.005 0 0 0 5.22037
0.515 0.005 0 0 0 5.20994
0.52 0.005 0 0 0 5.1949
0.525 0.005 0 0 0 5.17525
0.53 0.005 0 0 0 5.15101
0.535 0.005 0 0 0 5.12217
0.54 0.005 0 0 0 5.08878
0.545 0.005 0 0 0 5.05088
0.55 0.005 0 0 0 5.00851
0.555 0.005 0 0 0 4.96173
0.56 0.005 0 0 0 4.91064
0.565 0.005 0 0 0 4.85531
0.57 0.005 0 0 0 4.79583
0.575 0.005 0 0 0 4.73233
0.58 0.005 0 0 0 4.66491
0.585 0.005 0 0 0 4.59372
0.59 0.005 0 0 0 4.51889
0.595 0.005 0 0 0 4.44057
0.6 0.005 0 0 0 4.35892
0.605 0.005 0 0 0 4.2741
0.61 0.005 0 0 0 4.18631
0.615 0.005 0 0 0 4.09571
0.62 0.005 0 0 0 4.00251
0.625 0.005 0 0 0 3.90689
0.63 0.005 0 0 0 3.80907
0.635 0.005 0 0 0 3.70924
0.64 0.005 0 0 0 3.60763
0.645 0.005 0 0 0 3.50444
0.65 0.005 0 0 0 3.39989
0.655 0.005 0 0 0 3.29421
0.66 0.005 0 0 0 3.18762
0.665 0.005 0 0 0 3.08033
0.67 0.005 0 0 0 2.97256
0.675 0.005 0 0 0 2.86453
0.68 0.005 0 0 0 2.75647
0.685 0.005 0 0 0 2.64857
0.69 0.005 0 0 0 2.54106
0.695 0.005 0 0 0 2.43413
0.7 0.005 0 0 0 2.32798
0.705 0.005 0 0 0 2.22281
0.71 0.005 0 0 0 2.1188
0.715 0.005 0 0 0 2.01614
0.72 0.005 0 0 0 1.91498
0.725 0.005 0 0 0 1.8155
0.73 0.005 0 0 0 1.71785
0.735 0.005 0 0 0 1.62218
0.74 0.005 0 0 0 1.52862
0.745 0.005 0 0 0 1.43729
0.75 0.005 0 0 0 1.34831
0.755 0.005 0 0 0 1.26179
0.76 0.005 0 0 0 1.17783
0.765 0.005 0 0 0 1.0965
0.77 0.005 0 0 0 1.01788
0.775 0.005 0 0 0 0.942044
0.78 0.005 0 0 0 0.869037
0.785 0.005 0 0 0 0.798905
0.79 0.005 0 0 0 0.731682
0.795 0.005 0 0 0 0.667393
0.8 0.005 0 0 0 0.606055
0.805 0.005 0 0 0 0.547672
0.81 0.005 0 0 0 0.492243
0.815 0.005 0 0 0 0.439758
0.82 0.005 0 0 0 0.390197
0.825 0.005 0 0 0 0.343536
0.83 0.005 0 0 0 0.299742
0.835 0.005 0 0 0 0.258775
0.84 0.005 0 0 0 0.220591
0.845 0.005 0 0 0 0.185139
0.85 0.005 0 0 0 0.152364
0.855 0.005 0 0 0 0.122204
0.86 0.005 0 0 0 0.0945976
0.865 0.005 0 0 0 0.069475
0.87 0.005 0 0 0 0.046766
0.875 0.005 0 0 0 0.0263967
0.88 0.005 0 0 0 0.00829116
0.885 0.005 0 0 0 -0.0076289
0.89 0.005 0 0 0 -0.0214434
0.895 0.005 0 0 0 -0.0332337
0.9 0.005 0 0 0 -0.0430829
0.905 0.005 0 0 0 -0.0510751
0.91 0.005 0 0 0 -0.057296
0.915 0.005 0 0 0 -0.0618329
0.92 0.005 0 0 0 -0.0647748
0.925 0.005 0 0 0 -0.0662134
0.93 0.005 0 0 0 -0.0662434
0.935 0.005 0 0 0 -0.0649637
0.94 0.005 0 0 0 -0.0624791
0.945 0.005 0 0 0 -0.0589016
0.95 0.005 0 0 0 -0.0543534
0.955 0.005 0 0 0 -0.0489699
0.96 0.005 0 0 0 -0.0429041
0.965 0.005 0 0 0 -0.036332
0.97 0.005 0 0 0 -0.0294601
0.975 0.005 0 0 0 -0.0225349
0.98 0.005 0 0 0 -0.0158549
0.985 0.005 0 0 0 -0.00978354
0.99 0.005 0 0 0 -0.00475775
0.995 0.005 0 0 0 -0.00126791
1 0.005 0 0 0 0.000269192
0 0.01 0 0 0.000269192 0
0.005 0.01 0 0 0 -326.272
0.01 0.01 -0.180026 0.0775661 -0.000921595 -44.4184
0.015 0.01 -0.184781 -0.0350541 -0.000775661 9.51268
0.02 0.01 -0.156235 -0.0351842 -0.000571054 19.1046
0.025 0.01 -0.12737 -0.0245925 -0.000423819 18.9844
0.03 0.01 -0.103991 -0.016635 -0.000325129 16.8271
0.035 0.01 -0.0858449 -0.0116106 -0.000257469 14.509
0.04 0.01 -0.0717252 -0.008462 -0.000209023 12.4591
0.045 0.01 -0.0605722 -0.00641175 -0.000172849 10.7302
0.05 0.01 -0.0516158 -0.00500837 -0.000144906 9.28599
0.055 0.01 -0.0443192 -0.00400093 -0.000122765 8.07733
0.06 0.01 -0.0383063 -0.00324815 -0.000104896 7.06108
0.065 0.01 -0.0333082 -0.00266758 -9.02835e-05 6.20259
0.07 0.01 -0.0291268 -0.00220888 -7.82203e-05 5.4746
0.075 0.01 -0.0256124 -0.00183982 -6.81946e-05 4.85553
0.08 0.01 -0.022649 -0.0015388 -5.9822e-05 4.3281
0.085 0.01 -0.0201446 -0.00129072 -5.28065e-05 3.87825
0.09 0.01 -0.0180253 -0.00108464 -4.69147e-05 3.49443
0.095 0.01 -0.016231 -0.000912352 -4.196e-05 3.16704
0.1 0.01 -0.0147121 -0.000767571 -3.77911e-05 2.88803
0.105 0.01 -0.0134275 -0.000645362 -3.42842e-05 2.65064
0.11 0.01 -0.0123428 -0.000541797 -3.13374e-05 2.44913
0.115 0.01 -0.0114293 -0.000453706 -2.88661e-05 2.27863
0.12 0.01 -0.0106629 -0.000378509 -2.68002e-05 2.13499
0.125 0.01 -0.0100232 -0.000314088 -2.5081e-05 2.01469
0.13 0.01 -0.00949297 -0.000258695 -2.36593e-05 1.9147
0.135 0.01 -0.00905775 -0.000210883 -2.24939e-05 1.83245
0.14 0.01 -0.00870518 -0.000169446 -2.15503e-05 1.76575
0.145 0.01 -0.0084248 -0.000133381 -2.07994e-05 1.71269
0.15 0.01 -0.00820773 -0.000101848 -2.02164e-05 1.67166
0.155 0.01 -0.00804642 -7.4143e-05 -1.97808e-05 1.64129
0.16 0.01 -0.00793445 -4.96771e-05 -1.94749e-05 1.62038
0.165 0.01 -0.00786634 -2.79551e-05 -1.9284e-05 1.60791
0.17 0.01 -0.00783741 -8.56134e-06 -1.91953e-05 1.603
0.175 0.01 -0.00784367 8.8536e-06 -1.91983e-05 1.6049
0.18 0.01 -0.0078817 2.45832e-05 -1.92838e-05 1.61296
0.185 0.01 -0.00794855 3.88738e-05 -1.94441e-05 1.62662
0.19 0.01 -0.0080417 5.19324e-05 -1.96725e-05 1.64538
0.195 0.01 -0.00815897 6.39321e-05 -1.99633e-05 1.66882
0.2 0.01 -0.00829846 7.50178e-05 -2.03117e-05 1.69657
0.205 0.01 -0.00845852 8.53105e-05 -2.07135e-05 1.72831
0.21 0.01 -0.00863771 9.49106e-05 -2.11648e-05 1.76375
0.215 0.01 -0.00883475 0.000103902 -2.16625e-05 1.80264
0.22 0.01 -0.00904851 0.000112352 -2.22038e-05 1.84474
0.225 0.01 -0.00927796 0.000120318 -2.2786e-05 1.88985
0.23 0.01 -0.00952219 0.000127846 -2.34069e-05 1.93779
0.235 0.01 -0.00978036 0.000134972 -2.40644e-05 1.98838
0.24 0.01 -0.0100517 0.000141725 -2.47566e-05 2.04145
0.245 0.01 -0.0103354 0.000148129 -2.54816e-05 2.09687
0.25 0.01 -0.0106308 0.0001542 -2.62379e-05 2.15449
0.255 0.01 -0.0109373 0.000159951 -2.70236e-05 2.21416
0.26 0.01 -0.0112542 0.000165392 -2.78374e-05 2.27576
0.265 0.01 -0.0115809 0.000170527 -2.86775e-05 2.33916
0.27 0.01 -0.0119168 0.000175358 -2.95426e-05 2.40423
0.275 0.01 -0.0122611 0.000179887 -3.04311e-05 2.47084
0.28 0.01 -0.0126134 0.000184112 -3.13415e-05 2.53887
0.285 0.01 -0.012973 0.000188029 -3.22722e-05 2.60819
0.29 0.01 -0.0133393 0.000191634 -3.32218e-05 2.67867
0.295 0.01 -0.0137116 0.00019492 -3.41886e-05 2.75019
0.3 0.01 -0.0140893 0.000197882 -3.5171e-05 2.82261
0.305 0.01 -0.0144718 0.000200511 -3.61674e-05 2.8958
0.31 0.01 -0.0148583 0.000202801 -3.71762e-05 2.96964
0.315 0.01 -0.0152481 0.000204742 -3.81955e-05 3.04397
0.32 0.01 -0.0156407 0.000206327 -3.92236e-05 3.11867
0.325 0.01 -0.0160352 0.000207548 -4.02588e-05 3.1936
0.33 0.01 -0.016431 0.000208396 -4.12992e-05 3.26862
0.335 0.01 -0.0168274 0.000208863 -4.23428e-05 3.34357
0.34 0.01 -0.0172234 0.000208941 -4.33879e-05 3.41833
0.345 0.01 -0.0176185 0.000208624 -4.44323e-05 3.49273
0.35 0.01 -0.0180119 0.000207904 -4.54742e-05 3.56664
0.355 0.01 -0.0184027 0.000206775 -4.65115e-05 3.63989
0.36 0.01 -0.0187902 0.000205231 -4.75421e-05 3.71236
0.365 0.01 -0.0191735 0.000203268 -4.85639e-05 3.78387
0.37 0.01 -0.019552 0.000200882 -4.95749e-05 3.85428
0.375 0.01 -0.0199247 0.00019807 -5.05728e-05 3.92345
0.38 0.01 -0.0202909 0.000194829 -5.15557e-05 3.99122
0.385 0.01 -0.0206498 0.000191157 -5.25213e-05 4.05743
0.39 0.01 -0.0210005 0.000187056 -5.34674e-05 4.12195
0.395 0.01 -0.0213423 0.000182526 -5.4392e-05 4.18462
0.4 0.01 -0.0216744 0.000177568 -5.52928e-05 4.2453
0.405 0.01 -0.021996 0.000172186 -5.61678e-05 4.30385
0.41 0.01 -0.0223063 0.000166384 -5.70149e-05 4.36012
0.415 0.01 -0.0226045 0.000160168 -5.78319e-05 4.41397
0.42 0.01 -0.0228899 0.000153544 -5.86167e-05 4.46528
0.425 0.01 -0.0231619 0.00014652 -5.93675e-05 4.51391
0.43 0.01 -0.0234195 0.000139105 -6.00821e-05 4.55973
0.435 0.01 -0.0236623 0.000131311 -6.07588e-05 4.60262
0.44 0.01 -0.0238894 0.000123148 -6.13955e-05 4.64247
0.445 0.01 -0.0241003 0.00011463 -6.19905e-05 4.67915
0.45 0.01 -0.0242943 0.000105771 -6.2542e-05 4.71257
0.455 0.01 -0.0244709 9.65853e-05 -6.30484e-05 4.74263
0.46 0.01 -0.0246295 8.70908e-05 -6.35081e-05 4.76923
0.465 0.01 -0.0247695 7.73051e-05 -6.39196e-05 4.79227
0.47 0.01 -0.0248906 6.7247e-05 -6.42815e-05 4.81169
0.475 0.01 -0.0249922 5.69367e-05 -6.45924e-05 4.82741
0.48 0.01 -0.0250739 4.63954e-05 -6.48511e-05 4.83936
0.485 0.01 -0.0251354 3.56454e-05 -6.50566e-05 4.84748
0.49 0.01 -0.0251764 2.47098e-05 -6.52079e-05 4.85173
0.495 0.01 -0.0251965 1.36129e-05 -6.5304e-05 4.85206
0.5 0.01 -0.0251956 2.3797e-06 -6.53443e-05 4.84844
0.505 0.01 -0.0251734 -8.96391e-06 -6.53281e-05 4.84084
0.51 0.01 -0.0251298 -2.03914e-05 -6.5255e-05 4.82925
0.515 0.01 -0.0250648 -3.18754e-05 -6.51246e-05 4.81367
0.52 0.01 -0.0249783 -4.33882e-05 -6.49366e-05 4.79409
0.525 0.01 -0.0248703 -5.49014e-05 -6.4691e-05 4.77053
0.53 0.01 -0.0247408 -6.63864e-05 -6.43879e-05 4.74301
0.535 0.01 -0.0245901 -7.78141e-05 -6.40275e-05 4.71156
0.54 0.01 -0.0244182 -8.91554e-05 -6.36101e-05 4.67621
0.545 0.01 -0.0242254 -0.000100381 -6.31363e-05 4.63703
0.55 0.01 -0.024012 -0.000111462 -6.26067e-05 4.59406
0.555 0.01 -0.0237782 -0.000122368 -6.2022e-05 4.54738
0.56 0.01 -0.0235246 -0.000133072 -6.13833e-05 4.49705
0.565 0.01 -0.0232514 -0.000143544 -6.06917e-05 4.44318
0.57 0.01 -0.0229593 -0.000153757 -5.99483e-05 4.38584
0.575 0.01 -0.0226486 -0.000163683 -5.91545e-05 4.32515
0.58 0.01 -0.0223201 -0.000173295 -5.83118e-05 4.26121
0.585 0.01 -0.0219743 -0.000182569 -5.74219e-05 4.19415
0.59 0.01 -0.0216118 -0.000191479 -5.64865e-05 4.12408
0.595 0.01 -0.0212335 -0.000200001 -5.55074e-05 4.05115
0.6 0.01 -0.02084 -0.000208113 -5.44868e-05 3.97549
0.605 0.01 -0.0204321 -0.000215794 -5.34266e-05 3.89724
0.61 0.01 -0.0200107 -0.000223024 -5.23292e-05 3.81657
0.615 0.01 -0.0195767 -0.000229784 -5.11967e-05 3.73363
0.62 0.01 -0.0191308 -0.00023606 -5.00317e-05 3.64858
0.625 0.01 -0.018674 -0.000241834 -4.88365e-05 3.56159
0.63 0.01 -0.0182073 -0.000247096 -4.76136e-05 3.47283
0.635 0.01 -0.0177316 -0.000251832 -4.63658e-05 3.38248
0.64 0.01 -0.0172478 -0.000256035 -4.50956e-05 3.29071
0.645 0.01 -0.0167571 -0.000259696 -4.38058e-05 3.1977
0.65 0.01 -0.0162603 -0.00026281 -4.2499e-05 3.10364
0.655 0.01 -0.0157585 -0.000265375 -4.1178e-05 3.0087
0.66 0.01 -0.0152526 -0.000267388 -3.98455e-05 2.91307
0.665 0.01 -0.0147438 -0.000268851 -3.85043e-05 2.81694
0.67 0.01 -0.0142329 -0.000269766 -3.71572e-05 2.72047
0.675 0.01 -0.0137211 -0.000270139 -3.58069e-05 2.62386
0.68 0.01 -0.0132092 -0.000269976 -3.44561e-05 2.52728
0.685 0.01 -0.0126983 -0.000269285 -3.31074e-05 2.43091
0.69 0.01 -0.0121892 -0.000268079 -3.17635e-05 2.33491
0.695 0.01 -0.011683 -0.000266368 -3.04268e-05 2.23946
0.7 0.01 -0.0111806 -0.000264168 -2.91e-05 2.14472
0.705 0.01 -0.0106827 -0.000261494 -2.77853e-05 2.05085
0.71 0.01 -0.0101904 -0.000258363 -2.64852e-05 1.95801
0.715 0.01 -0.00970431 -0.000254794 -2.52019e-05 1.86634
0.72 0.01 -0.00922533 -0.000250808 -2.39374e-05 1.77598
0.725 0.01 -0.00875418 -0.000246426 -2.26939e-05 1.68708
0.73 0.01 -0.00829155 -0.000241669 -2.14733e-05 1.59975
0.735 0.01 -0.00783813 -0.000236562 -2.02774e-05 1.51412
0.74 0.01 -0.00739453 -0.000231128 -1.91078e-05 1.43031
0.745 0.01 -0.00696134 -0.000225392 -1.79662e-05 1.34842
0.75 0.01 -0.00653909 -0.00021938 -1.6854e-05 1.26855
0.755 0.01 -0.00612828 -0.000213116 -1.57725e-05 1.19079
0.76 0.01 -0.00572934 -0.000206626 -1.47229e-05 1.11523
0.765 0.01 -0.00534268 -0.000199937 -1.37063e-05 1.04193
0.77 0.01 -0.00496864 -0.000193075 -1.27236e-05 0.970959
0.775 0.01 -0.00460753 -0.000186064 -1.17756e-05 0.902383
0.78 0.01 -0.00425962 -0.00017893 -1.0863e-05 0.836246
0.785 0.01 -0.0039251 -0.000171698 -9.98635e-06 0.772589
0.79 0.01 -0.00360416 -0.000164393 -9.14606e-06 0.711447
0.795 0.01 -0.00329691 -0.000157037 -8.34245e-06 0.652845
0.8 0.01 -0.00300344 -0.000149654 -7.5757e-06 0.596799
0.805 0.01 -0.00272379 -0.000142266 -6.84592e-06 0.543322
0.81 0.01 -0.00245797 -0.000134894 -6.15305e-06 0.492415
0.815 0.01 -0.00220592 -0.000127558 -5.49697e-06 0.444075
0.82 0.01 -0.0019676 -0.000120277 -4.87746e-06 0.398291
0.825 0.01 -0.00174287 -0.000113069 -4.2942e-06 0.355048
0.83 0.01 -0.00153162 -0.000105951 -3.74676e-06 0.314321
0.835 0.01 -0.00133367 -9.89374e-05 -3.23468e-06 0.276084
0.84 0.01 -0.00114881 -9.20438e-05 -2.75737e-06 0.240301
0.845 0.01 -0.000976838 -8.52828e-05 -2.31422e-06 0.206936
0.85 0.01 -0.000817494 -7.86665e-05 -1.90452e-06 0.175943
0.855 0.01 -0.000670511 -7.22055e-05 -1.52753e-06 0.147278
0.86 0.01 -0.000535602 -6.59095e-05 -1.18244e-06 0.120887
0.865 0.01 -0.000412458 -5.9787e-05 -8.68412e-07 0.0967166
0.87 0.01 -0.000300758 -5.38452e-05 -5.84548e-07 0.0747089
0.875 0.01 -0.000200165 -4.80908e-05 -3.29931e-07 0.0548029
0.88 0.01 -0.00011033 -4.25292e-05 -1.03611e-07 0.0369352
0.885 0.01 -3.08915e-05 -3.71653e-05 9.53898e-08 0.0210399
0.89 0.01 3.85197e-05 -3.20032e-05 2.6807e-07 0.0070491
0.895 0.01 9.82832e-05 -2.70466e-05 4.1545e-07 -0.00510744
0.9 0.01 0.000148787 -2.22989e-05 5.38564e-07 -0.0155018
0.905 0.01 0.000190426 -1.77637e-05 6.38465e-07 -0.0242083
0.91 0.01 0.000223606 -1.34446e-05 7.16226e-07 -0.0313031
0.915 0.01 0.000248741 -9.34594e-06 7.72935e-07 -0.0368648
0.92 0.01 0.000266256 -5.47321e-06 8.09708e-07 -0.0409748
0.925 0.01 0.000276591 -1.8334e-06 8.27689e-07 -0.0437175
0.93 0.01 0.0002802 1.56424e-06 8.28062e-07 -0.045181
0.935 0.01 0.000277564 4.70734e-06 8.12065e-07 -0.0454586
0.94 0.01 0.000269188 7.57947e-06 7.81005e-07 -0.0446491
0.945 0.01 0.000255616 1.01587e-05 7.36284e-07 -0.0428588
0.95 0.01 0.000237437 1.2416e-05 6.7943e-07 -0.0402033
0.955 0.01 0.000215303 1.43129e-05 6.12135e-07 -0.0368096
0.96 0.01 0.000189941 1.57985e-05 5.3631e-07 -0.0328188
0.965 0.01 0.000162179 1.68059e-05 4.54157e-07 -0.0283893
0.97 0.01 0.000132967 1.72471e-05 3.68256e-07 -0.0236998
0.975 0.01 0.00010341 1.7007e-05 2.81689e-07 -0.0189517
0.98 0.01 7.47989e-05 1.59395e-05 1.98188e-07 -0.014369
0.985 0.01 4.86293e-05 1.38716e-05 1.22295e-07 -0.010191
0.99 0.01 2.65892e-05 1.06446e-05 5.94722e-08 -0.00664599
0.995 0.01 1.04348e-05 6.28371e-06 1.58488e-08 -0.00388244
1 0.01 1.58092e-06 1.58488e-06 -3.36506e-09 -0.00180474
0 0.015 0 0 -0.00126473 0
0.005 0.015 0 0 0 -255.979
0.01 0.015 -0.152809 0.184781 -0.00180026 -79.2776
0.015 0.015 -0.206115 -0.0237906 -0.00184781 -16.6465
0.02 0.015 -0.204399 -0.0574109 -0.00156235 2.32826
0.025 0.015 -0.184383 -0.0522444 -0.0012737 7.95685
0.03 0.015 -0.160951 -0.0415254 -0.00103991 9.29174
0.035 0.015 -0.139089 -0.0322656 -0.000858449 9.16771
0.04 0.015 -0.120067 -0.0252727 -0.000717252 8.55533
0.045 0.015 -0.103901 -0.0201094 -0.000605722 7.80919
0.05 0.015 -0.0902477 -0.016253 -0.000516158 7.06277
0.055 0.015 -0.0787149 -0.0133095 -0.000443191 6.36536
0.06 0.015 -0.0689509 -0.0110109 -0.000383063 5.7329
0.065 0.015 -0.0606625 -0.00917947 -0.000333082 5.16784
0.07 0.015 -0.0536106 -0.00769575 -0.000291268 4.66723
0.075 0.015 -0.0476002 -0.00647784 -0.000256124 4.22611
0.08 0.015 -0.0424717 -0.00546786 -0.000226489 3.83894
0.085 0.015 -0.0380932 -0.00462362 -0.000201445 3.50025
0.09 0.015 -0.0343548 -0.0039135 -0.000180253 3.20487
0.095 0.015 -0.0311648 -0.00331317 -0.00016231 2.94808
0.1 0.015 -0.0284455 -0.00280354 -0.000147121 2.72556
0.105 0.015 -0.0261316 -0.00236932 -0.000134274 2.53346
0.11 0.015 -0.0241675 -0.00199814 -0.000123427 2.36832
0.115 0.015 -0.0225059 -0.00167985 -0.000114292 2.22709
0.12 0.015 -0.0211065 -0.00140608 -0.000106628 2.10703
0.125 0.015 -0.0199349 -0.00116986 -0.000100231 2.00576
0.13 0.015 -0.0189619 -0.000965372 -9.49294e-05 1.92116
0.135 0.015 -0.0181624 -0.000787758 -9.05772e-05 1.85135
0.14 0.015 -0.0175148 -0.000632921 -8.70515e-05 1.79473
0.145 0.015 -0.0170009 -0.000497418 -8.42477e-05 1.74984
0.15 0.015 -0.0166049 -0.000378344 -8.2077e-05 1.71544
0.155 0.015 -0.0163133 -0.000273246 -8.04639e-05 1.69042
0.16 0.015 -0.0161146 -0.000180052 -7.93442e-05 1.67384
0.165 0.015 -0.0159987 -9.70116e-05 -7.86631e-05 1.66484
0.17 0.015 -0.0159572 -2.26418e-05 -7.83739e-05 1.66269
0.175 0.015 -0.0159827 4.43095e-05 -7.84365e-05 1.66675
0.18 0.015 -0.0160689 0.000104901 -7.88167e-05 1.67645
0.185 0.015 -0.0162102 0.000160027 -7.94853e-05 1.6913
0.19 0.015 -0.0164019 0.000210441 -8.04168e-05 1.71086
0.195 0.015 -0.0166398 0.000256778 -8.15895e-05 1.73474
0.2 0.015 -0.0169204 0.000299573 -8.29844e-05 1.76259
0.205 0.015 -0.0172405 0.000339272 -8.4585e-05 1.79413
0.21 0.015 -0.0175972 0.000376249 -8.63769e-05 1.82906
0.215 0.015 -0.0179881 0.000410816 -8.83473e-05 1.86714
0.22 0.015 -0.0184109 0.00044323 -9.04849e-05 1.90815
0.225 0.015 -0.0188636 0.000473702 -9.27795e-05 1.95189
0.23 0.015 -0.0193445 0.000502407 -9.52218e-05 1.99817
0.235 0.015 -0.0198517 0.000529483 -9.78035e-05 2.04681
0.24 0.015 -0.0203837 0.000555044 -0.000100517 2.09764
0.245 0.015 -0.020939 0.000579176 -0.000103354 2.15052
0.25 0.015 -0.0215163 0.000601948 -0.000106308 2.2053
0.255 0.015 -0.0221141 0.000623409 -0.000109373 2.26182
0.26 0.015 -0.0227311 0.000643594 -0.000112542 2.31996
0.265 0.015 -0.0233661 0.000662528 -0.000115809 2.37958
0.27 0.015 -0.0240178 0.000680222 -0.000119168 2.44054
0.275 0.015 -0.0246849 0.00069668 -0.000122611 2.50272
0.28 0.015 -0.0253662 0.000711899 -0.000126134 2.56598
0.285 0.015 -0.0260605 0.000725869 -0.00012973 2.6302
0.29 0.015 -0.0267664 0.000738577 -0.000133393 2.69524
0.295 0.015 -0.0274826 0.000750002 -0.000137116 2.76098
0.3 0.015 -0.0282079 0.000760125 -0.000140893 2.82728
0.305 0.015 -0.028941 0.00076892 -0.000144718 2.89402
0.31 0.015 -0.0296806 0.000776364 -0.000148583 2.96105
0.315 0.015 -0.0304252 0.000782429 -0.000152482 3.02826
0.32 0.015 -0.0311735 0.000787089 -0.000156407 3.09551
0.325 0.015 -0.0319242 0.000790317 -0.000160353 3.16265
0.33 0.015 -0.0326757 0.000792087 -0.000164311 3.22957
0.335 0.015 -0.0334267 0.000792374 -0.000168274 3.29611
0.34 0.015 -0.0341758 0.000791155 -0.000172235 3.36216
0.345 0.015 -0.0349214 0.000788406 -0.000176186 3.42756
0.35 0.015 -0.035662 0.000784109 -0.000180119 3.4922
0.355 0.015 -0.0363963 0.000778245 -0.000184027 3.55592
0.36 0.015 -0.0371226 0.000770801 -0.000187902 3.6186
0.365 0.015 -0.0378396 0.000761763 -0.000191736 3.6801
0.37 0.015 -0.0385455 0.000751123 -0.00019552 3.74029
0.375 0.015 -0.0392391 0.000738876 -0.000199247 3.79904
0.38 0.015 -0.0399187 0.000725019 -0.000202909 3.85622
0.385 0.015 -0.0405828 0.000709555 -0.000206498 3.9117
0.39 0.015 -0.04123 0.000692489 -0.000210006 3.96536
0.395 0.015 -0.0418588 0.000673831 -0.000213424 4.01707
0.4 0.015 -0.0424677 0.000653594 -0.000216745 4.06671
0.405 0.015 -0.0430553 0.000631796 -0.00021996 4.11417
0.41 0.015 -0.0436201 0.00060846 -0.000223063 4.15934
0.415 0.015 -0.0441608 0.000583613 -0.000226046 4.20209
0.42 0.015 -0.0446761 0.000557285 -0.0002289 4.24234
0.425 0.015 -0.0451646 0.000529512 -0.000231619 4.27997
0.43 0.015 -0.045625 0.000500333 -0.000234196 4.3149
0.435 0.015 -0.0460562 0.000469793 -0.000236624 4.34702
0.44 0.015 -0.0464568 0.000437941 -0.000238895 4.37626
0.445 0.015 -0.0468259 0.00040483 -0.000241004 4.40253
0.45 0.015 -0.0471623 0.000370517 -0.000242944 4.42575
0.455 0.015 -0.0474651 0.000335064 -0.00024471 4.44587
0.46 0.015 -0.0477332 0.000298535 -0.000246296 4.46281
0.465 0.015 -0.0479657 0.000261002 -0.000247697 4.47652
0.47 0.015 -0.048162 0.000222538 -0.000248907 4.48694
0.475 0.015 -0.0483212 0.00018322 -0.000249923 4.49404
0.48 0.015 -0.0484426 0.000143129 -0.00025074 4.49777
0.485 0.015 -0.0485257 0.000102349 -0.000251355 4.49811
0.49 0.015 -0.0485699 6.09682e-05 -0.000251765 4.49504
0.495 0.015 -0.0485749 1.90771e-05 -0.000251966 4.48853
0.5 0.015 -0.0485403 -2.32311e-05 -0.000251957 4.47857
0.505 0.015 -0.0484658 -6.58605e-05 -0.000251735 4.46518
0.51 0.015 -0.0483513 -0.000108713 -0.0002513 4.44834
0.515 0.015 -0.0481967 -0.000151688 -0.000250649 4.42808
0.52 0.015 -0.0480021 -0.000194685 -0.000249784 4.40441
0.525 0.015 -0.0477675 -0.0002376 -0.000248704 4.37737
0.53 0.015 -0.0474931 -0.00028033 -0.000247409 4.34698
0.535 0.015 -0.0471793 -0.000322768 -0.000245902 4.31329
0.54 0.015 -0.0468264 -0.000364811 -0.000244183 4.27635
0.545 0.015 -0.046435 -0.000406353 -0.000242255 4.23621
0.55 0.015 -0.0460056 -0.00044729 -0.000240121 4.19294
0.555 0.015 -0.0455388 -0.000487518 -0.000237784 4.1466
0.56 0.015 -0.0450355 -0.000526935 -0.000235247 4.09728
0.565 0.015 -0.0444965 -0.000565439 -0.000232516 4.04505
0.57 0.015 -0.0439227 -0.000602932 -0.000229594 3.99
0.575 0.015 -0.0433152 -0.000639317 -0.000226488 3.93224
0.58 0.015 -0.0426751 -0.000674502 -0.000223202 3.87185
0.585 0.015 -0.0420035 -0.000708395 -0.000219744 3.80895
0.59 0.015 -0.0413017 -0.00074091 -0.00021612 3.74365
0.595 0.015 -0.0405711 -0.000771965 -0.000212336 3.67606
0.6 0.015 -0.0398131 -0.000801482 -0.000208401 3.6063
0.605 0.015 -0.0390291 -0.000829387 -0.000204323 3.5345
0.61 0.015 -0.0382206 -0.000855612 -0.000200109 3.4608
0.615 0.015 -0.0373894 -0.000880096 -0.000195768 3.38531
0.62 0.015 -0.0365369 -0.00090278 -0.000191309 3.30818
0.625 0.015 -0.0356648 -0.000923615 -0.000186741 3.22955
0.63 0.015 -0.034775 -0.000942556 -0.000182074 3.14955
0.635 0.015 -0.0338691 -0.000959565 -0.000177317 3.06833
0.64 0.015 -0.032949 -0.000974611 -0.00017248 2.98604
0.645 0.015 -0.0320164 -0.00098767 -0.000167572 2.90282
0.65 0.015 -0.0310731 -0.000998725 -0.000162604 2.81882
0.655 0.015 -0.0301211 -0.00100777 -0.000157586 2.73418
0.66 0.015 -0.0291621 -0.00101479 -0.000152527 2.64906
0.665 0.015 -0.0281979 -0.0010198 -0.000147439 2.5636
0.67 0.015 -0.0272305 -0.00102281 -0.00014233 2.47794
0.675 0.015 -0.0262616 -0.00102384 -0.000137212 2.39223
0.68 0.015 -0.025293 -0.00102291 -0.000132093 2.30661
0.685 0.015 -0.0243264 -0.00102006 -0.000126983 2.22123
0.69 0.015 -0.0233637 -0.00101532 -0.000121893 2.13621
0.695 0.015 -0.0224064 -0.00100874 -0.000116831 2.05171
0.7 0.015 -0.0214563 -0.00100037 -0.000111806 1.96784
0.705 0.015 -0.020515 -0.000990263 -0.000106828 1.88474
0.71 0.015 -0.0195839 -0.000978489 -0.000101904 1.80253
0.715 0.015 -0.0186647 -0.000965112 -9.70438e-05 1.72133
0.72 0.015 -0.0177587 -0.000950203 -9.22539e-05 1.64126
0.725 0.015 -0.0168672 -0.00093384 -8.75423e-05 1.56242
0.73 0.015 -0.0159917 -0.000916102 -8.29161e-05 1.48493
0.735 0.015 -0.0151333 -0.000897072 -7.83818e-05 1.40888
0.74 0.015 -0.0142931 -0.000876836 -7.39458e-05 1.33436
0.745 0.015 -0.0134723 -0.000855484 -6.96138e-05 1.26147
0.75 0.015 -0.0126718 -0.000833105 -6.53913e-05 1.19029
0.755 0.015 -0.0118925 -0.000809792 -6.12831e-05 1.12089
0.76 0.015 -0.0111352 -0.000785637 -5.72937e-05 1.05334
0.765 0.015 -0.0104008 -0.000760733 -5.34271e-05 0.987709
0.77 0.015 -0.00968982 -0.000735173 -4.96866e-05 0.924054
0.775 0.015 -0.00900287 -0.000709049 -4.60755e-05 0.862425
0.78 0.015 -0.00834044 -0.000682454 -4.25963e-05 0.802867
0.785 0.015 -0.00770294 -0.000655477 -3.92512e-05 0.745418
0.79 0.015 -0.00709071 -0.000628207 -3.60417e-05 0.690111
0.795 0.015 -0.006504 -0.00060073 -3.29692e-05 0.63697
0.8 0.015 -0.00594298 -0.000573129 -3.00345e-05 0.586017
0.805 0.015 -0.00540775 -0.000545485 -2.7238e-05 0.537265
0.81 0.015 -0.00489834 -0.000517875 -2.45797e-05 0.490721
0.815 0.015 -0.00441471 -0.000490374 -2.20593e-05 0.446388
0.82 0.015 -0.00395675 -0.000463052 -1.9676e-05 0.404263
0.825 0.015 -0.00352428 -0.000435976 -1.74287e-05 0.364337
0.83 0.015 -0.00311707 -0.000409207 -1.53162e-05 0.326597