Title=" Lid Driven Flow"
VARIABLES="X","Y","U","V","psi","xi"
ZONE T= "BOX", I= 257, J=257, F=POINT
0 0 0 0 -306.146 0
0.00390625 0 0 0 0 0
0.0078125 0 0 0 0 0
0.0117188 0 0 0 0 -416.842
0.015625 0 0 0 0 -326.393
0.0195313 0 0 0 0 -259.812
0.0234375 0 0 0 0 -212.845
0.0273438 0 0 0 0 -179.566
0.03125 0 0 0 0 -155.496
0.0351563 0 0 0 0 -137.618
0.0390625 0 0 0 0 -123.961
0.0429688 0 0 0 0 -113.244
0.046875 0 0 0 0 -104.624
0.0507813 0 0 0 0 -97.5369
0.0546875 0 0 0 0 -91.5979
0.0585938 0 0 0 0 -86.5393
0.0625 0 0 0 0 -82.1698
0.0664063 0 0 0 0 -78.3502
0.0703125 0 0 0 0 -74.977
0.0742188 0 0 0 0 -71.9714
0.078125 0 0 0 0 -69.2728
0.0820313 0 0 0 0 -66.8335
0.0859375 0 0 0 0 -64.6153
0.0898438 0 0 0 0 -62.5878
0.09375 0 0 0 0 -60.7256
0.0976563 0 0 0 0 -59.0081
0.101563 0 0 0 0 -57.418
0.105469 0 0 0 0 -55.9407
0.109375 0 0 0 0 -54.5639
0.113281 0 0 0 0 -53.2769
0.117188 0 0 0 0 -52.0706
0.121094 0 0 0 0 -50.9373
0.125 0 0 0 0 -49.87
0.128906 0 0 0 0 -48.8627
0.132813 0 0 0 0 -47.9101
0.136719 0 0 0 0 -47.0076
0.140625 0 0 0 0 -46.1511
0.144531 0 0 0 0 -45.3368
0.148438 0 0 0 0 -44.5615
0.152344 0 0 0 0 -43.8222
0.15625 0 0 0 0 -43.1163
0.160156 0 0 0 0 -42.4414
0.164063 0 0 0 0 -41.7953
0.167969 0 0 0 0 -41.1761
0.171875 0 0 0 0 -40.582
0.175781 0 0 0 0 -40.0113
0.179688 0 0 0 0 -39.4626
0.183594 0 0 0 0 -38.9346
0.1875 0 0 0 0 -38.4259
0.191406 0 0 0 0 -37.9354
0.195313 0 0 0 0 -37.4621
0.199219 0 0 0 0 -37.0051
0.203125 0 0 0 0 -36.5633
0.207031 0 0 0 0 -36.1361
0.210938 0 0 0 0 -35.7225
0.214844 0 0 0 0 -35.322
0.21875 0 0 0 0 -34.9338
0.222656 0 0 0 0 -34.5573
0.226563 0 0 0 0 -34.192
0.230469 0 0 0 0 -33.8372
0.234375 0 0 0 0 -33.4926
0.238281 0 0 0 0 -33.1576
0.242188 0 0 0 0 -32.8318
0.246094 0 0 0 0 -32.5147
0.25 0 0 0 0 -32.2061
0.253906 0 0 0 0 -31.9055
0.257813 0 0 0 0 -31.6125
0.261719 0 0 0 0 -31.3269
0.265625 0 0 0 0 -31.0484
0.269531 0 0 0 0 -30.7766
0.273438 0 0 0 0 -30.5113
0.277344 0 0 0 0 -30.2522
0.28125 0 0 0 0 -29.9991
0.285156 0 0 0 0 -29.7518
0.289063 0 0 0 0 -29.51
0.292969 0 0 0 0 -29.2735
0.296875 0 0 0 0 -29.0422
0.300781 0 0 0 0 -28.8158
0.304688 0 0 0 0 -28.5941
0.308594 0 0 0 0 -28.377
0.3125 0 0 0 0 -28.1644
0.316406 0 0 0 0 -27.956
0.320313 0 0 0 0 -27.7518
0.324219 0 0 0 0 -27.5516
0.328125 0 0 0 0 -27.3552
0.332031 0 0 0 0 -27.1625
0.335938 0 0 0 0 -26.9734
0.339844 0 0 0 0 -26.7878
0.34375 0 0 0 0 -26.6055
0.347656 0 0 0 0 -26.4265
0.351563 0 0 0 0 -26.2507
0.355469 0 0 0 0 -26.0779
0.359375 0 0 0 0 -25.9081
0.363281 0 0 0 0 -25.7411
0.367188 0 0 0 0 -25.5769
0.371094 0 0 0 0 -25.4154
0.375 0 0 0 0 -25.2565
0.378906 0 0 0 0 -25.1002
0.382813 0 0 0 0 -24.9462
0.386719 0 0 0 0 -24.7947
0.390625 0 0 0 0 -24.6455
0.394531 0 0 0 0 -24.4985
0.398438 0 0 0 0 -24.3537
0.402344 0 0 0 0 -24.2109
0.40625 0 0 0 0 -24.0703
0.410156 0 0 0 0 -23.9316
0.414063 0 0 0 0 -23.7948
0.417969 0 0 0 0 -23.6599
0.421875 0 0 0 0 -23.5269
0.425781 0 0 0 0 -23.3955
0.429688 0 0 0 0 -23.2659
0.433594 0 0 0 0 -23.138
0.4375 0 0 0 0 -23.0116
0.441406 0 0 0 0 -22.8868
0.445313 0 0 0 0 -22.7636
0.449219 0 0 0 0 -22.6417
0.453125 0 0 0 0 -22.5213
0.457031 0 0 0 0 -22.4023
0.460938 0 0 0 0 -22.2846
0.464844 0 0 0 0 -22.1682
0.46875 0 0 0 0 -22.0531
0.472656 0 0 0 0 -21.9391
0.476563 0 0 0 0 -21.8263
0.480469 0 0 0 0 -21.7147
0.484375 0 0 0 0 -21.6041
0.488281 0 0 0 0 -21.4946
0.492188 0 0 0 0 -21.386
0.496094 0 0 0 0 -21.2784
0.5 0 0 0 0 -21.1718
0.503906 0 0 0 0 -21.066
0.507813 0 0 0 0 -20.9611
0.511719 0 0 0 0 -20.8569
0.515625 0 0 0 0 -20.7536
0.519531 0 0 0 0 -20.6509
0.523438 0 0 0 0 -20.549
0.527344 0 0 0 0 -20.4476
0.53125 0 0 0 0 -20.3469
0.535156 0 0 0 0 -20.2467
0.539063 0 0 0 0 -20.147
0.542969 0 0 0 0 -20.0477
0.546875 0 0 0 0 -19.9489
0.550781 0 0 0 0 -19.8504
0.554688 0 0 0 0 -19.7522
0.558594 0 0 0 0 -19.6543
0.5625 0 0 0 0 -19.5566
0.566406 0 0 0 0 -19.459
0.570313 0 0 0 0 -19.3615
0.574219 0 0 0 0 -19.2641
0.578125 0 0 0 0 -19.1666
0.582031 0 0 0 0 -19.069
0.585938 0 0 0 0 -18.9712
0.589844 0 0 0 0 -18.8732
0.59375 0 0 0 0 -18.7749
0.597656 0 0 0 0 -18.6762
0.601563 0 0 0 0 -18.577
0.605469 0 0 0 0 -18.4773
0.609375 0 0 0 0 -18.377
0.613281 0 0 0 0 -18.276
0.617188 0 0 0 0 -18.1743
0.621094 0 0 0 0 -18.0716
0.625 0 0 0 0 -17.968
0.628906 0 0 0 0 -17.8634
0.632813 0 0 0 0 -17.7576
0.636719 0 0 0 0 -17.6507
0.640625 0 0 0 0 -17.5424
0.644531 0 0 0 0 -17.4328
0.648438 0 0 0 0 -17.3218
0.652344 0 0 0 0 -17.2092
0.65625 0 0 0 0 -17.0951
0.660156 0 0 0 0 -16.9794
0.664063 0 0 0 0 -16.8619
0.667969 0 0 0 0 -16.7428
0.671875 0 0 0 0 -16.6219
0.675781 0 0 0 0 -16.4993
0.679688 0 0 0 0 -16.375
0.683594 0 0 0 0 -16.2489
0.6875 0 0 0 0 -16.1212
0.691406 0 0 0 0 -15.9919
0.695313 0 0 0 0 -15.861
0.699219 0 0 0 0 -15.7289
0.703125 0 0 0 0 -15.5955
0.707031 0 0 0 0 -15.4611
0.710938 0 0 0 0 -15.3258
0.714844 0 0 0 0 -15.1901
0.71875 0 0 0 0 -15.0541
0.722656 0 0 0 0 -14.9182
0.726563 0 0 0 0 -14.7827
0.730469 0 0 0 0 -14.6482
0.734375 0 0 0 0 -14.5151
0.738281 0 0 0 0 -14.3839
0.742188 0 0 0 0 -14.2551
0.746094 0 0 0 0 -14.1294
0.75 0 0 0 0 -14.0075
0.753906 0 0 0 0 -13.89
0.757813 0 0 0 0 -13.7776
0.761719 0 0 0 0 -13.6713
0.765625 0 0 0 0 -13.5717
0.769531 0 0 0 0 -13.4798
0.773438 0 0 0 0 -13.3964
0.777344 0 0 0 0 -13.3225
0.78125 0 0 0 0 -13.259
0.785156 0 0 0 0 -13.207
0.789063 0 0 0 0 -13.1674
0.792969 0 0 0 0 -13.1413
0.796875 0 0 0 0 -13.1296
0.800781 0 0 0 0 -13.1336
0.804688 0 0 0 0 -13.1542
0.808594 0 0 0 0 -13.1925
0.8125 0 0 0 0 -13.2497
0.816406 0 0 0 0 -13.327
0.820313 0 0 0 0 -13.4255
0.824219 0 0 0 0 -13.5463
0.828125 0 0 0 0 -13.6908
0.832031 0 0 0 0 -13.8602
0.835938 0 0 0 0 -14.0559
0.839844 0 0 0 0 -14.2792
0.84375 0 0 0 0 -14.5318
0.847656 0 0 0 0 -14.815
0.851563 0 0 0 0 -15.1307
0.855469 0 0 0 0 -15.4807
0.859375 0 0 0 0 -15.8669
0.863281 0 0 0 0 -16.2915
0.867188 0 0 0 0 -16.7569
0.871094 0 0 0 0 -17.2654
0.875 0 0 0 0 -17.82
0.878906 0 0 0 0 -18.4236
0.882813 0 0 0 0 -19.0794
0.886719 0 0 0 0 -19.791
0.890625 0 0 0 0 -20.5622
0.894531 0 0 0 0 -21.3972
0.898438 0 0 0 0 -22.3005
0.902344 0 0 0 0 -23.2769
0.90625 0 0 0 0 -24.3317
0.910156 0 0 0 0 -25.4705
0.914063 0 0 0 0 -26.6995
0.917969 0 0 0 0 -28.0255
0.921875 0 0 0 0 -29.4557
0.925781 0 0 0 0 -30.9985
0.929688 0 0 0 0 -32.663
0.933594 0 0 0 0 -34.4599
0.9375 0 0 0 0 -36.4018
0.941406 0 0 0 0 -38.5037
0.945313 0 0 0 0 -40.7845
0.949219 0 0 0 0 -43.2678
0.953125 0 0 0 0 -45.9847
0.957031 0 0 0 0 -48.9765
0.960938 0 0 0 0 -52.2997
0.964844 0 0 0 0 -56.0334
0.96875 0 0 0 0 -60.2906
0.972656 0 0 0 0 -65.237
0.976563 0 0 0 0 -71.1231
0.980469 0 0 0 0 -78.342
0.984375 0 0 0 0 -87.5409
0.988281 0 0 0 0 -99.8595
0.992188 0 0 0 0 -117.502
0.996094 0 0 0 0 -145.297
1 0 0 0 0 -195.801
0 0.00390625 0 0 0 0
0.00390625 0.00390625 0 0 0 0
0.0078125 0.00390625 0 0 0 -0.000311992
0.0117188 0.00390625 0 0 0 -0.000633979
0.015625 0.00390625 0 0 0 -0.000651408
0.0195313 0.00390625 0 0 0 -0.000244013
0.0234375 0.00390625 0 0 0 0.000611584
0.0273438 0.00390625 0 0 0 0.00189503
0.03125 0.00390625 0 0 0 0.00356798
0.0351563 0.00390625 0 0 0 0.00558624
0.0390625 0.00390625 0 0 0 0.00790542
0.0429688 0.00390625 0 0 0 0.0104835
0.046875 0.00390625 0 0 0 0.0132822
0.0507813 0.00390625 0 0 0 0.0162669
0.0546875 0.00390625 0 0 0 0.0194072
0.0585938 0.00390625 0 0 0 0.0226764
0.0625 0.00390625 0 0 0 0.0260515
0.0664063 0.00390625 0 0 0 0.0295124
0.0703125 0.00390625 0 0 0 0.0330422
0.0742188 0.00390625 0 0 0 0.0366264
0.078125 0.00390625 0 0 0 0.0402529
0.0820313 0.00390625 0 0 0 0.0439113
0.0859375 0.00390625 0 0 0 0.0475933
0.0898438 0.00390625 0 0 0 0.0512918
0.09375 0.00390625 0 0 0 0.0550008
0.0976563 0.00390625 0 0 0 0.0587157
0.101563 0.00390625 0 0 0 0.0624326
0.105469 0.00390625 0 0 0 0.0661482
0.109375 0.00390625 0 0 0 0.0698601
0.113281 0.00390625 0 0 0 0.0735661
0.117188 0.00390625 0 0 0 0.0772647
0.121094 0.00390625 0 0 0 0.0809544
0.125 0.00390625 0 0 0 0.0846341
0.128906 0.00390625 0 0 0 0.0883031
0.132813 0.00390625 0 0 0 0.0919604
0.136719 0.00390625 0 0 0 0.0956057
0.140625 0.00390625 0 0 0 0.0992382
0.144531 0.00390625 0 0 0 0.102858
0.148438 0.00390625 0 0 0 0.106463
0.152344 0.00390625 0 0 0 0.110055
0.15625 0.00390625 0 0 0 0.113633
0.160156 0.00390625 0 0 0 0.117196
0.164063 0.00390625 0 0 0 0.120744
0.167969 0.00390625 0 0 0 0.124276
0.171875 0.00390625 0 0 0 0.127793
0.175781 0.00390625 0 0 0 0.131294
0.179688 0.00390625 0 0 0 0.134778
0.183594 0.00390625 0 0 0 0.138246
0.1875 0.00390625 0 0 0 0.141697
0.191406 0.00390625 0 0 0 0.14513
0.195313 0.00390625 0 0 0 0.148545
0.199219 0.00390625 0 0 0 0.151942
0.203125 0.00390625 0 0 0 0.155321
0.207031 0.00390625 0 0 0 0.15868
0.210938 0.00390625 0 0 0 0.16202
0.214844 0.00390625 0 0 0 0.16534
0.21875 0.00390625 0 0 0 0.16864
0.222656 0.00390625 0 0 0 0.171919
0.226563 0.00390625 0 0 0 0.175177
0.230469 0.00390625 0 0 0 0.178414
0.234375 0.00390625 0 0 0 0.181628
0.238281 0.00390625 0 0 0 0.184821
0.242188 0.00390625 0 0 0 0.18799
0.246094 0.00390625 0 0 0 0.191137
0.25 0.00390625 0 0 0 0.194259
0.253906 0.00390625 0 0 0 0.197358
0.257813 0.00390625 0 0 0 0.200432
0.261719 0.00390625 0 0 0 0.203481
0.265625 0.00390625 0 0 0 0.206505
0.269531 0.00390625 0 0 0 0.209503
0.273438 0.00390625 0 0 0 0.212475
0.277344 0.00390625 0 0 0 0.21542
0.28125 0.00390625 0 0 0 0.218338
0.285156 0.00390625 0 0 0 0.221228
0.289063 0.00390625 0 0 0 0.224091
0.292969 0.00390625 0 0 0 0.226925
0.296875 0.00390625 0 0 0 0.22973
0.300781 0.00390625 0 0 0 0.232505
0.304688 0.00390625 0 0 0 0.235251
0.308594 0.00390625 0 0 0 0.237967
0.3125 0.00390625 0 0 0 0.240651
0.316406 0.00390625 0 0 0 0.243305
0.320313 0.00390625 0 0 0 0.245927
0.324219 0.00390625 0 0 0 0.248517
0.328125 0.00390625 0 0 0 0.251075
0.332031 0.00390625 0 0 0 0.253599
0.335938 0.00390625 0 0 0 0.25609
0.339844 0.00390625 0 0 0 0.258548
0.34375 0.00390625 0 0 0 0.260971
0.347656 0.00390625 0 0 0 0.263359
0.351563 0.00390625 0 0 0 0.265712
0.355469 0.00390625 0 0 0 0.268029
0.359375 0.00390625 0 0 0 0.27031
0.363281 0.00390625 0 0 0 0.272555
0.367188 0.00390625 0 0 0 0.274762
0.371094 0.00390625 0 0 0 0.276932
0.375 0.00390625 0 0 0 0.279064
0.378906 0.00390625 0 0 0 0.281157
0.382813 0.00390625 0 0 0 0.283212
0.386719 0.00390625 0 0 0 0.285227
0.390625 0.00390625 0 0 0 0.287203
0.394531 0.00390625 0 0 0 0.289138
0.398438 0.00390625 0 0 0 0.291032
0.402344 0.00390625 0 0 0 0.292886
0.40625 0.00390625 0 0 0 0.294697
0.410156 0.00390625 0 0 0 0.296467
0.414063 0.00390625 0 0 0 0.298193
0.417969 0.00390625 0 0 0 0.299877
0.421875 0.00390625 0 0 0 0.301517
0.425781 0.00390625 0 0 0 0.303114
0.429688 0.00390625 0 0 0 0.304666
0.433594 0.00390625 0 0 0 0.306173
0.4375 0.00390625 0 0 0 0.307635
0.441406 0.00390625 0 0 0 0.309051
0.445313 0.00390625 0 0 0 0.31042
0.449219 0.00390625 0 0 0 0.311744
0.453125 0.00390625 0 0 0 0.31302
0.457031 0.00390625 0 0 0 0.314248
0.460938 0.00390625 0 0 0 0.315428
0.464844 0.00390625 0 0 0 0.31656
0.46875 0.00390625 0 0 0 0.317643
0.472656 0.00390625 0 0 0 0.318677
0.476563 0.00390625 0 0 0 0.319661
0.480469 0.00390625 0 0 0 0.320595
0.484375 0.00390625 0 0 0 0.321478
0.488281 0.00390625 0 0 0 0.32231
0.492188 0.00390625 0 0 0 0.32309
0.496094 0.00390625 0 0 0 0.323819
0.5 0.00390625 0 0 0 0.324495
0.503906 0.00390625 0 0 0 0.325119
0.507813 0.00390625 0 0 0 0.325689
0.511719 0.00390625 0 0 0 0.326206
0.515625 0.00390625 0 0 0 0.326669
0.519531 0.00390625 0 0 0 0.327077
0.523438 0.00390625 0 0 0 0.327431
0.527344 0.00390625 0 0 0 0.32773
0.53125 0.00390625 0 0 0 0.327973
0.535156 0.00390625 0 0 0 0.32816
0.539063 0.00390625 0 0 0 0.328291
0.542969 0.00390625 0 0 0 0.328366
0.546875 0.00390625 0 0 0 0.328384
0.550781 0.00390625 0 0 0 0.328344
0.554688 0.00390625 0 0 0 0.328247
0.558594 0.00390625 0 0 0 0.328092
0.5625 0.00390625 0 0 0 0.327879
0.566406 0.00390625 0 0 0 0.327607
0.570313 0.00390625 0 0 0 0.327276
0.574219 0.00390625 0 0 0 0.326886
0.578125 0.00390625 0 0 0 0.326437
0.582031 0.00390625 0 0 0 0.325928
0.585938 0.00390625 0 0 0 0.325359
0.589844 0.00390625 0 0 0 0.32473
0.59375 0.00390625 0 0 0 0.324041
0.597656 0.00390625 0 0 0 0.323291
0.601563 0.00390625 0 0 0 0.32248
0.605469 0.00390625 0 0 0 0.321608
0.609375 0.00390625 0 0 0 0.320675
0.613281 0.00390625 0 0 0 0.31968
0.617188 0.00390625 0 0 0 0.318624
0.621094 0.00390625 0 0 0 0.317506
0.625 0.00390625 0 0 0 0.316327
0.628906 0.00390625 0 0 0 0.315085
0.632813 0.00390625 0 0 0 0.313781
0.636719 0.00390625 0 0 0 0.312415
0.640625 0.00390625 0 0 0 0.310987
0.644531 0.00390625 0 0 0 0.309497
0.648438 0.00390625 0 0 0 0.307944
0.652344 0.00390625 0 0 0 0.306329
0.65625 0.00390625 0 0 0 0.304652
0.660156 0.00390625 0 0 0 0.302912
0.664063 0.00390625 0 0 0 0.30111
0.667969 0.00390625 0 0 0 0.299245
0.671875 0.00390625 0 0 0 0.297319
0.675781 0.00390625 0 0 0 0.29533
0.679688 0.00390625 0 0 0 0.293279
0.683594 0.00390625 0 0 0 0.291167
0.6875 0.00390625 0 0 0 0.288992
0.691406 0.00390625 0 0 0 0.286756
0.695313 0.00390625 0 0 0 0.284459
0.699219 0.00390625 0 0 0 0.2821
0.703125 0.00390625 0 0 0 0.279681
0.707031 0.00390625 0 0 0 0.2772
0.710938 0.00390625 0 0 0 0.274659
0.714844 0.00390625 0 0 0 0.272058
0.71875 0.00390625 0 0 0 0.269397
0.722656 0.00390625 0 0 0 0.266676
0.726563 0.00390625 0 0 0 0.263896
0.730469 0.00390625 0 0 0 0.261057
0.734375 0.00390625 0 0 0 0.25816
0.738281 0.00390625 0 0 0 0.255204
0.742188 0.00390625 0 0 0 0.252191
0.746094 0.00390625 0 0 0 0.24912
0.75 0.00390625 0 0 0 0.245993
0.753906 0.00390625 0 0 0 0.242809
0.757813 0.00390625 0 0 0 0.23957
0.761719 0.00390625 0 0 0 0.236275
0.765625 0.00390625 0 0 0 0.232925
0.769531 0.00390625 0 0 0 0.229522
0.773438 0.00390625 0 0 0 0.226065
0.777344 0.00390625 0 0 0 0.222555
0.78125 0.00390625 0 0 0 0.218992
0.785156 0.00390625 0 0 0 0.215378
0.789063 0.00390625 0 0 0 0.211713
0.792969 0.00390625 0 0 0 0.207998
0.796875 0.00390625 0 0 0 0.204233
0.800781 0.00390625 0 0 0 0.200419
0.804688 0.00390625 0 0 0 0.196557
0.808594 0.00390625 0 0 0 0.192648
0.8125 0.00390625 0 0 0 0.188692
0.816406 0.00390625 0 0 0 0.18469
0.820313 0.00390625 0 0 0 0.180643
0.824219 0.00390625 0 0 0 0.176552
0.828125 0.00390625 0 0 0 0.172418
0.832031 0.00390625 0 0 0 0.168241
0.835938 0.00390625 0 0 0 0.164022
0.839844 0.00390625 0 0 0 0.159763
0.84375 0.00390625 0 0 0 0.155464
0.847656 0.00390625 0 0 0 0.151125
0.851563 0.00390625 0 0 0 0.146749
0.855469 0.00390625 0 0 0 0.142335
0.859375 0.00390625 0 0 0 0.137885
0.863281 0.00390625 0 0 0 0.1334
0.867188 0.00390625 0 0 0 0.128881
0.871094 0.00390625 0 0 0 0.124329
0.875 0.00390625 0 0 0 0.119745
0.878906 0.00390625 0 0 0 0.115131
0.882813 0.00390625 0 0 0 0.110489
0.886719 0.00390625 0 0 0 0.105818
0.890625 0.00390625 0 0 0 0.101123
0.894531 0.00390625 0 0 0 0.0964042
0.898438 0.00390625 0 0 0 0.0916648
0.902344 0.00390625 0 0 0 0.0869075
0.90625 0.00390625 0 0 0 0.0821358
0.910156 0.00390625 0 0 0 0.0773537
0.914063 0.00390625 0 0 0 0.0725659
0.917969 0.00390625 0 0 0 0.0677781
0.921875 0.00390625 0 0 0 0.0629971
0.925781 0.00390625 0 0 0 0.0582307
0.929688 0.00390625 0 0 0 0.0534887
0.933594 0.00390625 0 0 0 0.048782
0.9375 0.00390625 0 0 0 0.0441241
0.941406 0.00390625 0 0 0 0.0395306
0.945313 0.00390625 0 0 0 0.0350199
0.949219 0.00390625 0 0 0 0.0306134
0.953125 0.00390625 0 0 0 0.0263361
0.957031 0.00390625 0 0 0 0.0222171
0.960938 0.00390625 0 0 0 0.0182898
0.964844 0.00390625 0 0 0 0.0145924
0.96875 0.00390625 0 0 0 0.0111686
0.972656 0.00390625 0 0 0 0.00806721
0.976563 0.00390625 0 0 0 0.00534242
0.980469 0.00390625 0 0 0 0.00305257
0.984375 0.00390625 0 0 0 0.00125751
0.988281 0.00390625 0 0 0 1.22595e-05
0.992188 0.00390625 0 0 0 -0.000647342
0.996094 0.00390625 0 0 0 -0.000736576
1 0.00390625 0 0 0 -0.000390744
0 0.0078125 0 0 -0.000390744 0
0.00390625 0.0078125 0 0 0 -0.000311992
0.0078125 0.0078125 6.1924e-07 -6.1912e-07 2.38033e-09 -1.00847e-05
0.0117188 0.0078125 9.70677e-07 -3.31459e-07 4.83716e-09 0.000289282
0.015625 0.0078125 2.77555e-07 3.80862e-07 4.97062e-09 0.000721794
0.0195313 0.0078125 -1.79972e-06 1.23349e-06 1.86305e-09 0.00138973
0.0234375 0.0078125 -5.35472e-06 2.08908e-06 -4.66398e-09 0.0023442
0.0273438 0.0078125 -1.03503e-05 2.88736e-06 -1.44552e-08 0.00359938
0.03125 0.0078125 -1.66841e-05 3.60505e-06 -2.72182e-08 0.00514734
0.0351563 0.0078125 -2.42256e-05 4.23621e-06 -4.26158e-08 0.00696817
0.0390625 0.0078125 -3.28355e-05 4.78302e-06 -6.03093e-08 0.00903632
0.0429688 0.0078125 -4.23768e-05 5.2513e-06 -7.99784e-08 0.0113242
0.046875 0.0078125 -5.27207e-05 5.64841e-06 -1.0133e-07 0.0138044
0.0507813 0.0078125 -6.37489e-05 5.9821e-06 -1.24101e-07 0.0164509
0.0546875 0.0078125 -7.5355e-05 6.25996e-06 -1.4806e-07 0.0192396
0.0585938 0.0078125 -8.74444e-05 6.48919e-06 -1.73002e-07 0.0221486
0.0625 0.0078125 -9.99343e-05 6.67638e-06 -1.98752e-07 0.0251585
0.0664063 0.0078125 -0.000112753 6.82751e-06 -2.25157e-07 0.028252
0.0703125 0.0078125 -0.000125837 6.9479e-06 -2.52087e-07 0.031414
0.0742188 0.0078125 -0.000139133 7.04228e-06 -2.79433e-07 0.0346316
0.078125 0.0078125 -0.000152597 7.11476e-06 -3.07101e-07 0.0378935
0.0820313 0.0078125 -0.00016619 7.16893e-06 -3.35014e-07 0.0411901
0.0859375 0.0078125 -0.000179879 7.20788e-06 -3.63105e-07 0.0445133
0.0898438 0.0078125 -0.000193637 7.23424e-06 -3.91323e-07 0.0478562
0.09375 0.0078125 -0.000207442 7.25026e-06 -4.19621e-07 0.051213
0.0976563 0.0078125 -0.000221276 7.2578e-06 -4.47964e-07 0.054579
0.101563 0.0078125 -0.000235123 7.25845e-06 -4.76322e-07 0.0579501
0.105469 0.0078125 -0.00024897 7.25352e-06 -5.04671e-07 0.061323
0.109375 0.0078125 -0.000262808 7.24406e-06 -5.32991e-07 0.0646949
0.113281 0.0078125 -0.000276627 7.23096e-06 -5.61266e-07 0.0680637
0.117188 0.0078125 -0.000290422 7.21492e-06 -5.89484e-07 0.0714274
0.121094 0.0078125 -0.000304187 7.1965e-06 -6.17635e-07 0.0747845
0.125 0.0078125 -0.000317916 7.17615e-06 -6.4571e-07 0.0781337
0.128906 0.0078125 -0.000331607 7.15421e-06 -6.73703e-07 0.0814741
0.132813 0.0078125 -0.000345256 7.13096e-06 -7.01607e-07 0.0848047
0.136719 0.0078125 -0.000358861 7.10659e-06 -7.29419e-07 0.0881247
0.140625 0.0078125 -0.000372419 7.08127e-06 -7.57133e-07 0.0914336
0.144531 0.0078125 -0.000385928 7.05509e-06 -7.84748e-07 0.0947307
0.148438 0.0078125 -0.000399387 7.02813e-06 -8.12259e-07 0.0980156
0.152344 0.0078125 -0.000412794 7.00045e-06 -8.39663e-07 0.101288
0.15625 0.0078125 -0.000426147 6.97208e-06 -8.66958e-07 0.104547
0.160156 0.0078125 -0.000439446 6.94303e-06 -8.94142e-07 0.107793
0.164063 0.0078125 -0.000452688 6.91332e-06 -9.21211e-07 0.111025
0.167969 0.0078125 -0.000465872 6.88294e-06 -9.48163e-07 0.114242
0.171875 0.0078125 -0.000478998 6.85188e-06 -9.74995e-07 0.117446
0.175781 0.0078125 -0.000492063 6.82014e-06 -1.00171e-06 0.120634
0.179688 0.0078125 -0.000505066 6.7877e-06 -1.02829e-06 0.123807
0.183594 0.0078125 -0.000518006 6.75456e-06 -1.05475e-06 0.126964
0.1875 0.0078125 -0.000530882 6.72069e-06 -1.08107e-06 0.130105
0.191406 0.0078125 -0.000543691 6.68609e-06 -1.10727e-06 0.133231
0.195313 0.0078125 -0.000556433 6.65075e-06 -1.13333e-06 0.136339
0.199219 0.0078125 -0.000569106 6.61464e-06 -1.15924e-06 0.13943
0.203125 0.0078125 -0.000581708 6.57777e-06 -1.18502e-06 0.142504
0.207031 0.0078125 -0.000594239 6.54011e-06 -1.21065e-06 0.14556
0.210938 0.0078125 -0.000606696 6.50167e-06 -1.23613e-06 0.148598
0.214844 0.0078125 -0.000619078 6.46242e-06 -1.26146e-06 0.151617
0.21875 0.0078125 -0.000631384 6.42238e-06 -1.28664e-06 0.154618
0.222656 0.0078125 -0.000643611 6.38152e-06 -1.31166e-06 0.157599
0.226563 0.0078125 -0.000655759 6.33984e-06 -1.33652e-06 0.16056
0.230469 0.0078125 -0.000667826 6.29734e-06 -1.36121e-06 0.163501
0.234375 0.0078125 -0.000679809 6.25402e-06 -1.38574e-06 0.166422
0.238281 0.0078125 -0.000691709 6.20986e-06 -1.41009e-06 0.169322
0.242188 0.0078125 -0.000703522 6.16486e-06 -1.43428e-06 0.1722
0.246094 0.0078125 -0.000715248 6.11902e-06 -1.45828e-06 0.175057
0.25 0.0078125 -0.000726884 6.07234e-06 -1.48211e-06 0.177892
0.253906 0.0078125 -0.00073843 6.02481e-06 -1.50575e-06 0.180705
0.257813 0.0078125 -0.000749883 5.97644e-06 -1.5292e-06 0.183494
0.261719 0.0078125 -0.000761242 5.92721e-06 -1.55247e-06 0.18626
0.265625 0.0078125 -0.000772505 5.87712e-06 -1.57554e-06 0.189003
0.269531 0.0078125 -0.000783671 5.82618e-06 -1.59841e-06 0.191722
0.273438 0.0078125 -0.000794737 5.77438e-06 -1.62109e-06 0.194416
0.277344 0.0078125 -0.000805704 5.72171e-06 -1.64356e-06 0.197085
0.28125 0.0078125 -0.000816567 5.66819e-06 -1.66582e-06 0.199729
0.285156 0.0078125 -0.000827327 5.6138e-06 -1.68787e-06 0.202348
0.289063 0.0078125 -0.000837981 5.55854e-06 -1.70971e-06 0.20494
0.292969 0.0078125 -0.000848528 5.50241e-06 -1.73133e-06 0.207506
0.296875 0.0078125 -0.000858966 5.44541e-06 -1.75273e-06 0.210045
0.300781 0.0078125 -0.000869294 5.38753e-06 -1.77391e-06 0.212557
0.304688 0.0078125 -0.000879509 5.32879e-06 -1.79486e-06 0.215041
0.308594 0.0078125 -0.00088961 5.26916e-06 -1.81558e-06 0.217497
0.3125 0.0078125 -0.000899595 5.20866e-06 -1.83606e-06 0.219924
0.316406 0.0078125 -0.000909464 5.14728e-06 -1.85631e-06 0.222323
0.320313 0.0078125 -0.000919213 5.08502e-06 -1.87631e-06 0.224692
0.324219 0.0078125 -0.000928842 5.02187e-06 -1.89608e-06 0.227032
0.328125 0.0078125 -0.000938348 4.95785e-06 -1.91559e-06 0.229341
0.332031 0.0078125 -0.000947731 4.89293e-06 -1.93485e-06 0.23162
0.335938 0.0078125 -0.000956988 4.82714e-06 -1.95386e-06 0.233869
0.339844 0.0078125 -0.000966118 4.76045e-06 -1.97261e-06 0.236085
0.34375 0.0078125 -0.000975118 4.69287e-06 -1.99109e-06 0.23827
0.347656 0.0078125 -0.000983988 4.62441e-06 -2.00931e-06 0.240423
0.351563 0.0078125 -0.000992725 4.55505e-06 -2.02727e-06 0.242544
0.355469 0.0078125 -0.00100133 4.4848e-06 -2.04495e-06 0.244631
0.359375 0.0078125 -0.0010098 4.41366e-06 -2.06235e-06 0.246685
0.363281 0.0078125 -0.00101813 4.34162e-06 -2.07947e-06 0.248705
0.367188 0.0078125 -0.00102632 4.26869e-06 -2.09632e-06 0.250692
0.371094 0.0078125 -0.00103437 4.19486e-06 -2.11287e-06 0.252643
0.375 0.0078125 -0.00104228 4.12013e-06 -2.12914e-06 0.25456
0.378906 0.0078125 -0.00105004 4.04451e-06 -2.14511e-06 0.256441
0.382813 0.0078125 -0.00105766 3.96799e-06 -2.16079e-06 0.258286
0.386719 0.0078125 -0.00106513 3.89057e-06 -2.17616e-06 0.260095
0.390625 0.0078125 -0.00107245 3.81226e-06 -2.19124e-06 0.261868
0.394531 0.0078125 -0.00107962 3.73305e-06 -2.206e-06 0.263603
0.398438 0.0078125 -0.00108664 3.65294e-06 -2.22045e-06 0.265301
0.402344 0.0078125 -0.0010935 3.57193e-06 -2.23459e-06 0.266962
0.40625 0.0078125 -0.0011002 3.49002e-06 -2.24842e-06 0.268584
0.410156 0.0078125 -0.00110675 3.40722e-06 -2.26192e-06 0.270167
0.414063 0.0078125 -0.00111314 3.32352e-06 -2.27509e-06 0.271711
0.417969 0.0078125 -0.00111937 3.23893e-06 -2.28794e-06 0.273216
0.421875 0.0078125 -0.00112544 3.15345e-06 -2.30045e-06 0.274681
0.425781 0.0078125 -0.00113134 3.06707e-06 -2.31263e-06 0.276106
0.429688 0.0078125 -0.00113707 2.9798e-06 -2.32448e-06 0.27749
0.433594 0.0078125 -0.00114264 2.89165e-06 -2.33597e-06 0.278833
0.4375 0.0078125 -0.00114804 2.80261e-06 -2.34713e-06 0.280135
0.441406 0.0078125 -0.00115327 2.71268e-06 -2.35793e-06 0.281395
0.445313 0.0078125 -0.00115832 2.62187e-06 -2.36838e-06 0.282613
0.449219 0.0078125 -0.0011632 2.53019e-06 -2.37848e-06 0.283788
0.453125 0.0078125 -0.0011679 2.43763e-06 -2.38821e-06 0.284919
0.457031 0.0078125 -0.00117243 2.3442e-06 -2.39759e-06 0.286008
0.460938 0.0078125 -0.00117678 2.2499e-06 -2.40659e-06 0.287053
0.464844 0.0078125 -0.00118094 2.15474e-06 -2.41523e-06 0.288053
0.46875 0.0078125 -0.00118492 2.05873e-06 -2.42349e-06 0.289009
0.472656 0.0078125 -0.00118872 1.96185e-06 -2.43138e-06 0.289921
0.476563 0.0078125 -0.00119234 1.86414e-06 -2.43889e-06 0.290786
0.480469 0.0078125 -0.00119576 1.76558e-06 -2.44601e-06 0.291606
0.484375 0.0078125 -0.001199 1.66618e-06 -2.45275e-06 0.29238
0.488281 0.0078125 -0.00120205 1.56595e-06 -2.4591e-06 0.293108
0.492188 0.0078125 -0.0012049 1.4649e-06 -2.46505e-06 0.293789
0.496094 0.0078125 -0.00120756 1.36304e-06 -2.47061e-06 0.294422
0.5 0.0078125 -0.00121003 1.26037e-06 -2.47577e-06 0.295009
0.503906 0.0078125 -0.0012123 1.15691e-06 -2.48053e-06 0.295547
0.507813 0.0078125 -0.00121437 1.05265e-06 -2.48488e-06 0.296037
0.511719 0.0078125 -0.00121624 9.47614e-07 -2.48882e-06 0.296479
0.515625 0.0078125 -0.00121791 8.41808e-07 -2.49236e-06 0.296871
0.519531 0.0078125 -0.00121938 7.35243e-07 -2.49547e-06 0.297215
0.523438 0.0078125 -0.00122065 6.27929e-07 -2.49817e-06 0.297508
0.527344 0.0078125 -0.00122171 5.19879e-07 -2.50045e-06 0.297752
0.53125 0.0078125 -0.00122256 4.11104e-07 -2.50231e-06 0.297946
0.535156 0.0078125 -0.00122321 3.01617e-07 -2.50374e-06 0.298089
0.539063 0.0078125 -0.00122364 1.91431e-07 -2.50474e-06 0.298182
0.542969 0.0078125 -0.00122387 8.056e-08 -2.50531e-06 0.298223
0.546875 0.0078125 -0.00122389 -3.0981e-08 -2.50544e-06 0.298213
0.550781 0.0078125 -0.00122369 -1.43177e-07 -2.50514e-06 0.298151
0.554688 0.0078125 -0.00122328 -2.56013e-07 -2.5044e-06 0.298037
0.558594 0.0078125 -0.00122265 -3.69472e-07 -2.50322e-06 0.297871
0.5625 0.0078125 -0.00122181 -4.83537e-07 -2.50159e-06 0.297652
0.566406 0.0078125 -0.00122074 -5.98191e-07 -2.49952e-06 0.297381
0.570313 0.0078125 -0.00121946 -7.13414e-07 -2.49699e-06 0.297056
0.574219 0.0078125 -0.00121797 -8.29189e-07 -2.49402e-06 0.296678
0.578125 0.0078125 -0.00121625 -9.45495e-07 -2.49059e-06 0.296247
0.582031 0.0078125 -0.00121431 -1.06231e-06 -2.48671e-06 0.295762
0.585938 0.0078125 -0.00121214 -1.17962e-06 -2.48237e-06 0.295223
0.589844 0.0078125 -0.00120976 -1.2974e-06 -2.47757e-06 0.29463
0.59375 0.0078125 -0.00120714 -1.41562e-06 -2.47231e-06 0.293982
0.597656 0.0078125 -0.00120431 -1.53426e-06 -2.46659e-06 0.29328
0.601563 0.0078125 -0.00120125 -1.65331e-06 -2.4604e-06 0.292524
0.605469 0.0078125 -0.00119796 -1.77272e-06 -2.45375e-06 0.291712
0.609375 0.0078125 -0.00119444 -1.89249e-06 -2.44663e-06 0.290845
0.613281 0.0078125 -0.0011907 -2.01258e-06 -2.43904e-06 0.289924
0.617188 0.0078125 -0.00118673 -2.13297e-06 -2.43099e-06 0.288947
0.621094 0.0078125 -0.00118253 -2.25363e-06 -2.42246e-06 0.287914
0.625 0.0078125 -0.0011781 -2.37453e-06 -2.41346e-06 0.286826
0.628906 0.0078125 -0.00117344 -2.49564e-06 -2.40398e-06 0.285683
0.632813 0.0078125 -0.00116855 -2.61693e-06 -2.39404e-06 0.284483
0.636719 0.0078125 -0.00116344 -2.73838e-06 -2.38362e-06 0.283228
0.640625 0.0078125 -0.00115809 -2.85995e-06 -2.37272e-06 0.281918
0.644531 0.0078125 -0.00115251 -2.98161e-06 -2.36135e-06 0.280551
0.648438 0.0078125 -0.0011467 -3.10333e-06 -2.3495e-06 0.279129
0.652344 0.0078125 -0.00114065 -3.22508e-06 -2.33718e-06 0.277651
0.65625 0.0078125 -0.00113438 -3.34682e-06 -2.32438e-06 0.276117
0.660156 0.0078125 -0.00112788 -3.46852e-06 -2.31111e-06 0.274527
0.664063 0.0078125 -0.00112114 -3.59015e-06 -2.29736e-06 0.272881
0.667969 0.0078125 -0.00111418 -3.71167e-06 -2.28314e-06 0.27118
0.671875 0.0078125 -0.00110699 -3.83304e-06 -2.26844e-06 0.269422
0.675781 0.0078125 -0.00109956 -3.95423e-06 -2.25326e-06 0.26761
0.679688 0.0078125 -0.00109191 -4.0752e-06 -2.23762e-06 0.265742
0.683594 0.0078125 -0.00108402 -4.19591e-06 -2.2215e-06 0.263818
0.6875 0.0078125 -0.00107591 -4.31634e-06 -2.20491e-06 0.261839
0.691406 0.0078125 -0.00106757 -4.43643e-06 -2.18785e-06 0.259806
0.695313 0.0078125 -0.00105901 -4.55615e-06 -2.17032e-06 0.257717
0.699219 0.0078125 -0.00105021 -4.67546e-06 -2.15233e-06 0.255573
0.703125 0.0078125 -0.00104119 -4.79433e-06 -2.13386e-06 0.253376
0.707031 0.0078125 -0.00103195 -4.9127e-06 -2.11494e-06 0.251123
0.710938 0.0078125 -0.00102248 -5.03055e-06 -2.09555e-06 0.248817
0.714844 0.0078125 -0.00101279 -5.14783e-06 -2.07571e-06 0.246457
0.71875 0.0078125 -0.00100288 -5.26451e-06 -2.0554e-06 0.244043
0.722656 0.0078125 -0.000992746 -5.38053e-06 -2.03464e-06 0.241576
0.726563 0.0078125 -0.000982395 -5.49587e-06 -2.01343e-06 0.239057
0.730469 0.0078125 -0.000971825 -5.61047e-06 -1.99177e-06 0.236484
0.734375 0.0078125 -0.000961039 -5.7243e-06 -1.96967e-06 0.23386
0.738281 0.0078125 -0.000950038 -5.83732e-06 -1.94712e-06 0.231183
0.742188 0.0078125 -0.000938824 -5.94948e-06 -1.92413e-06 0.228455
0.746094 0.0078125 -0.000927398 -6.06074e-06 -1.9007e-06 0.225676
0.75 0.0078125 -0.000915763 -6.17108e-06 -1.87684e-06 0.222846
0.753906 0.0078125 -0.000903919 -6.28043e-06 -1.85255e-06 0.219966
0.757813 0.0078125 -0.000891869 -6.38876e-06 -1.82783e-06 0.217036
0.761719 0.0078125 -0.000879615 -6.49604e-06 -1.80269e-06 0.214057
0.765625 0.0078125 -0.000867158 -6.60222e-06 -1.77714e-06 0.211029
0.769531 0.0078125 -0.000854501 -6.70725e-06 -1.75117e-06 0.207953
0.773438 0.0078125 -0.000841647 -6.81112e-06 -1.72479e-06 0.204829
0.777344 0.0078125 -0.000828597 -6.91376e-06 -1.69801e-06 0.201658
0.78125 0.0078125 -0.000815353 -7.01516e-06 -1.67083e-06 0.19844
0.785156 0.0078125 -0.000801919 -7.11526e-06 -1.64326e-06 0.195176
0.789063 0.0078125 -0.000788296 -7.21404e-06 -1.61529e-06 0.191866
0.792969 0.0078125 -0.000774487 -7.31145e-06 -1.58695e-06 0.188512
0.796875 0.0078125 -0.000760495 -7.40748e-06 -1.55822e-06 0.185113
0.800781 0.0078125 -0.000746322 -7.50207e-06 -1.52912e-06 0.181671
0.804688 0.0078125 -0.000731972 -7.5952e-06 -1.49966e-06 0.178186
0.808594 0.0078125 -0.000717446 -7.68684e-06 -1.46983e-06 0.174659
0.8125 0.0078125 -0.000702748 -7.77695e-06 -1.43965e-06 0.17109
0.816406 0.0078125 -0.00068788 -7.86552e-06 -1.40912e-06 0.16748
0.820313 0.0078125 -0.000672847 -7.95251e-06 -1.37824e-06 0.16383
0.824219 0.0078125 -0.000657649 -8.0379e-06 -1.34703e-06 0.16014
0.828125 0.0078125 -0.000642292 -8.12166e-06 -1.31548e-06 0.156412
0.832031 0.0078125 -0.000626777 -8.20375e-06 -1.28362e-06 0.152646
0.835938 0.0078125 -0.000611109 -8.28417e-06 -1.25143e-06 0.148843
0.839844 0.0078125 -0.00059529 -8.36286e-06 -1.21893e-06 0.145003
0.84375 0.0078125 -0.000579323 -8.43981e-06 -1.18613e-06 0.141128
0.847656 0.0078125 -0.000563212 -8.51496e-06 -1.15303e-06 0.137219
0.851563 0.0078125 -0.000546961 -8.58829e-06 -1.11963e-06 0.133275