Title=" Lid Driven Flow"
VARIABLES="X","Y","U","V","psi","xi"
ZONE T= "BOX", I= 201, J=201, F=POINT
0 0 0 0 0.00341763 0
0.005 0 0 0 0 0
0.01 0 0 0 0 0
0.015 0 0 0 0 161.891
0.02 0 0 0 0 176.121
0.025 0 0 0 0 155.598
0.03 0 0 0 0 133.204
0.035 0 0 0 0 115.68
0.04 0 0 0 0 102.822
0.045 0 0 0 0 93.287
0.05 0 0 0 0 85.9642
0.055 0 0 0 0 80.1208
0.06 0 0 0 0 75.2982
0.065 0 0 0 0 71.2075
0.07 0 0 0 0 67.661
0.075 0 0 0 0 64.5319
0.08 0 0 0 0 61.7319
0.085 0 0 0 0 59.1974
0.09 0 0 0 0 56.8815
0.095 0 0 0 0 54.7489
0.1 0 0 0 0 52.7726
0.105 0 0 0 0 50.9315
0.11 0 0 0 0 49.2089
0.115 0 0 0 0 47.5915
0.12 0 0 0 0 46.0682
0.125 0 0 0 0 44.6299
0.13 0 0 0 0 43.2691
0.135 0 0 0 0 41.9792
0.14 0 0 0 0 40.7546
0.145 0 0 0 0 39.5904
0.15 0 0 0 0 38.4823
0.155 0 0 0 0 37.4263
0.16 0 0 0 0 36.4189
0.165 0 0 0 0 35.4569
0.17 0 0 0 0 34.5374
0.175 0 0 0 0 33.6576
0.18 0 0 0 0 32.8151
0.185 0 0 0 0 32.0074
0.19 0 0 0 0 31.2323
0.195 0 0 0 0 30.4879
0.2 0 0 0 0 29.772
0.205 0 0 0 0 29.0829
0.21 0 0 0 0 28.4189
0.215 0 0 0 0 27.7784
0.22 0 0 0 0 27.1597
0.225 0 0 0 0 26.5614
0.23 0 0 0 0 25.9821
0.235 0 0 0 0 25.4206
0.24 0 0 0 0 24.8756
0.245 0 0 0 0 24.3459
0.25 0 0 0 0 23.8305
0.255 0 0 0 0 23.3283
0.26 0 0 0 0 22.8383
0.265 0 0 0 0 22.3596
0.27 0 0 0 0 21.8914
0.275 0 0 0 0 21.4329
0.28 0 0 0 0 20.9833
0.285 0 0 0 0 20.5419
0.29 0 0 0 0 20.1081
0.295 0 0 0 0 19.6812
0.3 0 0 0 0 19.2607
0.305 0 0 0 0 18.846
0.31 0 0 0 0 18.4367
0.315 0 0 0 0 18.0324
0.32 0 0 0 0 17.6325
0.325 0 0 0 0 17.2369
0.33 0 0 0 0 16.845
0.335 0 0 0 0 16.4567
0.34 0 0 0 0 16.0717
0.345 0 0 0 0 15.6897
0.35 0 0 0 0 15.3106
0.355 0 0 0 0 14.9341
0.36 0 0 0 0 14.5602
0.365 0 0 0 0 14.1887
0.37 0 0 0 0 13.8195
0.375 0 0 0 0 13.4525
0.38 0 0 0 0 13.0878
0.385 0 0 0 0 12.7253
0.39 0 0 0 0 12.3651
0.395 0 0 0 0 12.0071
0.4 0 0 0 0 11.6514
0.405 0 0 0 0 11.298
0.41 0 0 0 0 10.9472
0.415 0 0 0 0 10.5989
0.42 0 0 0 0 10.2534
0.425 0 0 0 0 9.91067
0.43 0 0 0 0 9.57094
0.435 0 0 0 0 9.23436
0.44 0 0 0 0 8.90111
0.445 0 0 0 0 8.57138
0.45 0 0 0 0 8.24534
0.455 0 0 0 0 7.92321
0.46 0 0 0 0 7.60518
0.465 0 0 0 0 7.29146
0.47 0 0 0 0 6.98226
0.475 0 0 0 0 6.67779
0.48 0 0 0 0 6.37827
0.485 0 0 0 0 6.08389
0.49 0 0 0 0 5.79486
0.495 0 0 0 0 5.51138
0.5 0 0 0 0 5.23364
0.505 0 0 0 0 4.96183
0.51 0 0 0 0 4.69612
0.515 0 0 0 0 4.43668
0.52 0 0 0 0 4.18366
0.525 0 0 0 0 3.93721
0.53 0 0 0 0 3.69744
0.535 0 0 0 0 3.46449
0.54 0 0 0 0 3.23843
0.545 0 0 0 0 3.01937
0.55 0 0 0 0 2.80737
0.555 0 0 0 0 2.60248
0.56 0 0 0 0 2.40474
0.565 0 0 0 0 2.21416
0.57 0 0 0 0 2.03076
0.575 0 0 0 0 1.85452
0.58 0 0 0 0 1.68541
0.585 0 0 0 0 1.52338
0.59 0 0 0 0 1.36838
0.595 0 0 0 0 1.22033
0.6 0 0 0 0 1.07914
0.605 0 0 0 0 0.944712
0.61 0 0 0 0 0.816932
0.615 0 0 0 0 0.695674
0.62 0 0 0 0 0.580802
0.625 0 0 0 0 0.472169
0.63 0 0 0 0 0.36962
0.635 0 0 0 0 0.272994
0.64 0 0 0 0 0.18212
0.645 0 0 0 0 0.0968248
0.65 0 0 0 0 0.016927
0.655 0 0 0 0 -0.057757
0.66 0 0 0 0 -0.127414
0.665 0 0 0 0 -0.192235
0.67 0 0 0 0 -0.25241
0.675 0 0 0 0 -0.308132
0.68 0 0 0 0 -0.359594
0.685 0 0 0 0 -0.40699
0.69 0 0 0 0 -0.450512
0.695 0 0 0 0 -0.490353
0.7 0 0 0 0 -0.526705
0.705 0 0 0 0 -0.55976
0.71 0 0 0 0 -0.589706
0.715 0 0 0 0 -0.616731
0.72 0 0 0 0 -0.641022
0.725 0 0 0 0 -0.662762
0.73 0 0 0 0 -0.682132
0.735 0 0 0 0 -0.699309
0.74 0 0 0 0 -0.714464
0.745 0 0 0 0 -0.727766
0.75 0 0 0 0 -0.739372
0.755 0 0 0 0 -0.749437
0.76 0 0 0 0 -0.758102
0.765 0 0 0 0 -0.765499
0.77 0 0 0 0 -0.771747
0.775 0 0 0 0 -0.776954
0.78 0 0 0 0 -0.781209
0.785 0 0 0 0 -0.784589
0.79 0 0 0 0 -0.787151
0.795 0 0 0 0 -0.788936
0.8 0 0 0 0 -0.789965
0.805 0 0 0 0 -0.790244
0.81 0 0 0 0 -0.789757
0.815 0 0 0 0 -0.788473
0.82 0 0 0 0 -0.786343
0.825 0 0 0 0 -0.783304
0.83 0 0 0 0 -0.779278
0.835 0 0 0 0 -0.774176
0.84 0 0 0 0 -0.7679
0.845 0 0 0 0 -0.760344
0.85 0 0 0 0 -0.7514
0.855 0 0 0 0 -0.740958
0.86 0 0 0 0 -0.72891
0.865 0 0 0 0 -0.715156
0.87 0 0 0 0 -0.699603
0.875 0 0 0 0 -0.682173
0.88 0 0 0 0 -0.662805
0.885 0 0 0 0 -0.641454
0.89 0 0 0 0 -0.618104
0.895 0 0 0 0 -0.592761
0.9 0 0 0 0 -0.565463
0.905 0 0 0 0 -0.536279
0.91 0 0 0 0 -0.505313
0.915 0 0 0 0 -0.472705
0.92 0 0 0 0 -0.438635
0.925 0 0 0 0 -0.40332
0.93 0 0 0 0 -0.367019
0.935 0 0 0 0 -0.330033
0.94 0 0 0 0 -0.292701
0.945 0 0 0 0 -0.255408
0.95 0 0 0 0 -0.218577
0.955 0 0 0 0 -0.182673
0.96 0 0 0 0 -0.148203
0.965 0 0 0 0 -0.115712
0.97 0 0 0 0 -0.0857846
0.975 0 0 0 0 -0.0590402
0.98 0 0 0 0 -0.0361243
0.985 0 0 0 0 -0.0176887
0.99 0 0 0 0 -0.00434244
0.995 0 0 0 0 0.00346335
1 0 0 0 0 0.00570675
0 0.005 0 0 0 0
0.005 0.005 0 0 0 0
0.01 0.005 0 0 0 73.7283
0.015 0.005 0 0 0 62.0741
0.02 0.005 0 0 0 45.7341
0.025 0.005 0 0 0 33.9723
0.03 0.005 0 0 0 26.0739
0.035 0.005 0 0 0 20.6383
0.04 0.005 0 0 0 16.7253
0.045 0.005 0 0 0 13.7852
0.05 0.005 0 0 0 11.5001
0.055 0.005 0 0 0 9.6795
0.06 0.005 0 0 0 8.20384
0.065 0.005 0 0 0 6.99357
0.07 0.005 0 0 0 5.9931
0.075 0.005 0 0 0 5.16178
0.08 0.005 0 0 0 4.46876
0.085 0.005 0 0 0 3.88997
0.09 0.005 0 0 0 3.4062
0.095 0.005 0 0 0 3.0019
0.1 0.005 0 0 0 2.66431
0.105 0.005 0 0 0 2.3829
0.11 0.005 0 0 0 2.14895
0.115 0.005 0 0 0 1.95516
0.12 0.005 0 0 0 1.79545
0.125 0.005 0 0 0 1.66474
0.13 0.005 0 0 0 1.55878
0.135 0.005 0 0 0 1.47399
0.14 0.005 0 0 0 1.40739
0.145 0.005 0 0 0 1.35649
0.15 0.005 0 0 0 1.31919
0.155 0.005 0 0 0 1.29374
0.16 0.005 0 0 0 1.27868
0.165 0.005 0 0 0 1.27279
0.17 0.005 0 0 0 1.27504
0.175 0.005 0 0 0 1.28458
0.18 0.005 0 0 0 1.30069
0.185 0.005 0 0 0 1.32279
0.19 0.005 0 0 0 1.35036
0.195 0.005 0 0 0 1.383
0.2 0.005 0 0 0 1.42034
0.205 0.005 0 0 0 1.4621
0.21 0.005 0 0 0 1.50801
0.215 0.005 0 0 0 1.55786
0.22 0.005 0 0 0 1.61147
0.225 0.005 0 0 0 1.66867
0.23 0.005 0 0 0 1.72931
0.235 0.005 0 0 0 1.79327
0.24 0.005 0 0 0 1.86043
0.245 0.005 0 0 0 1.93067
0.25 0.005 0 0 0 2.00389
0.255 0.005 0 0 0 2.07999
0.26 0.005 0 0 0 2.15887
0.265 0.005 0 0 0 2.24043
0.27 0.005 0 0 0 2.32456
0.275 0.005 0 0 0 2.41118
0.28 0.005 0 0 0 2.50016
0.285 0.005 0 0 0 2.59141
0.29 0.005 0 0 0 2.68481
0.295 0.005 0 0 0 2.78025
0.3 0.005 0 0 0 2.8776
0.305 0.005 0 0 0 2.97675
0.31 0.005 0 0 0 3.07756
0.315 0.005 0 0 0 3.17988
0.32 0.005 0 0 0 3.28359
0.325 0.005 0 0 0 3.38854
0.33 0.005 0 0 0 3.49456
0.335 0.005 0 0 0 3.6015
0.34 0.005 0 0 0 3.7092
0.345 0.005 0 0 0 3.81749
0.35 0.005 0 0 0 3.92619
0.355 0.005 0 0 0 4.03512
0.36 0.005 0 0 0 4.1441
0.365 0.005 0 0 0 4.25294
0.37 0.005 0 0 0 4.36144
0.375 0.005 0 0 0 4.4694
0.38 0.005 0 0 0 4.57663
0.385 0.005 0 0 0 4.68292
0.39 0.005 0 0 0 4.78807
0.395 0.005 0 0 0 4.89185
0.4 0.005 0 0 0 4.99407
0.405 0.005 0 0 0 5.09451
0.41 0.005 0 0 0 5.19295
0.415 0.005 0 0 0 5.28917
0.42 0.005 0 0 0 5.38298
0.425 0.005 0 0 0 5.47414
0.43 0.005 0 0 0 5.56246
0.435 0.005 0 0 0 5.6477
0.44 0.005 0 0 0 5.72968
0.445 0.005 0 0 0 5.80817
0.45 0.005 0 0 0 5.88298
0.455 0.005 0 0 0 5.9539
0.46 0.005 0 0 0 6.02075
0.465 0.005 0 0 0 6.08333
0.47 0.005 0 0 0 6.14146
0.475 0.005 0 0 0 6.19495
0.48 0.005 0 0 0 6.24364
0.485 0.005 0 0 0 6.28737
0.49 0.005 0 0 0 6.32598
0.495 0.005 0 0 0 6.35932
0.5 0.005 0 0 0 6.38725
0.505 0.005 0 0 0 6.40965
0.51 0.005 0 0 0 6.4264
0.515 0.005 0 0 0 6.43739
0.52 0.005 0 0 0 6.44254
0.525 0.005 0 0 0 6.44175
0.53 0.005 0 0 0 6.43497
0.535 0.005 0 0 0 6.42212
0.54 0.005 0 0 0 6.40318
0.545 0.005 0 0 0 6.37811
0.55 0.005 0 0 0 6.3469
0.555 0.005 0 0 0 6.30954
0.56 0.005 0 0 0 6.26607
0.565 0.005 0 0 0 6.21651
0.57 0.005 0 0 0 6.1609
0.575 0.005 0 0 0 6.09932
0.58 0.005 0 0 0 6.03184
0.585 0.005 0 0 0 5.95856
0.59 0.005 0 0 0 5.87959
0.595 0.005 0 0 0 5.79507
0.6 0.005 0 0 0 5.70514
0.605 0.005 0 0 0 5.60996
0.61 0.005 0 0 0 5.50971
0.615 0.005 0 0 0 5.40459
0.62 0.005 0 0 0 5.29479
0.625 0.005 0 0 0 5.18056
0.63 0.005 0 0 0 5.06211
0.635 0.005 0 0 0 4.93971
0.64 0.005 0 0 0 4.81361
0.645 0.005 0 0 0 4.6841
0.65 0.005 0 0 0 4.55146
0.655 0.005 0 0 0 4.41598
0.66 0.005 0 0 0 4.27797
0.665 0.005 0 0 0 4.13774
0.67 0.005 0 0 0 3.99562
0.675 0.005 0 0 0 3.85192
0.68 0.005 0 0 0 3.70699
0.685 0.005 0 0 0 3.56115
0.69 0.005 0 0 0 3.41473
0.695 0.005 0 0 0 3.26807
0.7 0.005 0 0 0 3.12151
0.705 0.005 0 0 0 2.97537
0.71 0.005 0 0 0 2.82998
0.715 0.005 0 0 0 2.68567
0.72 0.005 0 0 0 2.54275
0.725 0.005 0 0 0 2.40152
0.73 0.005 0 0 0 2.26228
0.735 0.005 0 0 0 2.12532
0.74 0.005 0 0 0 1.99092
0.745 0.005 0 0 0 1.85933
0.75 0.005 0 0 0 1.7308
0.755 0.005 0 0 0 1.60557
0.76 0.005 0 0 0 1.48384
0.765 0.005 0 0 0 1.36583
0.77 0.005 0 0 0 1.25171
0.775 0.005 0 0 0 1.14164
0.78 0.005 0 0 0 1.03578
0.785 0.005 0 0 0 0.934248
0.79 0.005 0 0 0 0.837151
0.795 0.005 0 0 0 0.74458
0.8 0.005 0 0 0 0.656604
0.805 0.005 0 0 0 0.573275
0.81 0.005 0 0 0 0.494626
0.815 0.005 0 0 0 0.420671
0.82 0.005 0 0 0 0.351407
0.825 0.005 0 0 0 0.286814
0.83 0.005 0 0 0 0.226857
0.835 0.005 0 0 0 0.171483
0.84 0.005 0 0 0 0.120626
0.845 0.005 0 0 0 0.0742068
0.85 0.005 0 0 0 0.0321326
0.855 0.005 0 0 0 -0.00570052
0.86 0.005 0 0 0 -0.0394073
0.865 0.005 0 0 0 -0.0691118
0.87 0.005 0 0 0 -0.0949467
0.875 0.005 0 0 0 -0.117052
0.88 0.005 0 0 0 -0.135574
0.885 0.005 0 0 0 -0.150666
0.89 0.005 0 0 0 -0.162483
0.895 0.005 0 0 0 -0.171187
0.9 0.005 0 0 0 -0.176942
0.905 0.005 0 0 0 -0.179917
0.91 0.005 0 0 0 -0.180281
0.915 0.005 0 0 0 -0.17821
0.92 0.005 0 0 0 -0.173882
0.925 0.005 0 0 0 -0.167479
0.93 0.005 0 0 0 -0.159191
0.935 0.005 0 0 0 -0.149213
0.94 0.005 0 0 0 -0.137755
0.945 0.005 0 0 0 -0.125038
0.95 0.005 0 0 0 -0.111302
0.955 0.005 0 0 0 -0.0968126
0.96 0.005 0 0 0 -0.0818655
0.965 0.005 0 0 0 -0.0667977
0.97 0.005 0 0 0 -0.0519972
0.975 0.005 0 0 0 -0.037916
0.98 0.005 0 0 0 -0.0250837
0.985 0.005 0 0 0 -0.0141156
0.99 0.005 0 0 0 -0.00570006
0.995 0.005 0 0 0 -0.000513837
1 0.005 0 0 0 0.00108432
0 0.01 0 0 0.00108432 0
0.005 0.01 0 0 0 -326.272
0.01 0.01 -0.180048 0.0775926 -0.000921603 -44.4003
0.015 0.01 -0.184875 -0.0349927 -0.000775926 9.53298
0.02 0.01 -0.156409 -0.0351272 -0.000571676 19.1187
0.025 0.01 -0.127579 -0.0245752 -0.000424654 18.9911
0.03 0.01 -0.104164 -0.0166675 -0.000325924 16.8232
0.035 0.01 -0.0859146 -0.0116858 -0.000257979 14.4888
0.04 0.01 -0.0716382 -0.00856637 -0.000209066 12.4164
0.045 0.01 -0.0602953 -0.00653156 -0.000172316 10.6603
0.05 0.01 -0.0511343 -0.00513218 -0.000143751 9.18597
0.055 0.01 -0.0436334 -0.00412029 -0.000120994 7.9463
0.06 0.01 -0.0374274 -0.00335741 -0.000102548 6.89984
0.065 0.01 -0.0322547 -0.00276342 -8.74196e-05 6.01323
0.07 0.01 -0.0279215 -0.00228974 -7.49138e-05 5.26007
0.075 0.01 -0.0242798 -0.00190543 -6.45222e-05 4.61929
0.08 0.01 -0.0212137 -0.00158976 -5.58595e-05 4.07382
0.085 0.01 -0.0186301 -0.0013282 -4.86246e-05 3.6096
0.09 0.01 -0.0164535 -0.00111009 -4.25775e-05 3.21492
0.095 0.01 -0.0146211 -0.000927365 -3.75237e-05 2.87991
0.1 0.01 -0.013081 -0.000773737 -3.33038e-05 2.5962
0.105 0.01 -0.0117896 -0.000644195 -2.97863e-05 2.35667
0.11 0.01 -0.0107102 -0.00053468 -2.68618e-05 2.15522
0.115 0.01 -0.00981192 -0.00044187 -2.44395e-05 1.98665
0.12 0.01 -0.00906865 -0.000363018 -2.24431e-05 1.84651
0.125 0.01 -0.00845835 -0.000295843 -2.08093e-05 1.73097
0.13 0.01 -0.0079624 -0.000238445 -1.94847e-05 1.63678
0.135 0.01 -0.00756506 -0.000189232 -1.84248e-05 1.56114
0.14 0.01 -0.00725303 -0.000146873 -1.75923e-05 1.50167
0.145 0.01 -0.0070151 -0.000110252 -1.69561e-05 1.45636
0.15 0.01 -0.00684178 -7.84334e-05 -1.64898e-05 1.42345
0.155 0.01 -0.00672508 -5.0631e-05 -1.61717e-05 1.40149
0.16 0.01 -0.00665829 -2.6187e-05 -1.59835e-05 1.38922
0.165 0.01 -0.00663571 -4.55018e-06 -1.59098e-05 1.38557
0.17 0.01 -0.00665258 1.47411e-05 -1.5938e-05 1.38964
0.175 0.01 -0.00670487 3.20725e-05 -1.60572e-05 1.40066
0.18 0.01 -0.0067892 4.77657e-05 -1.62587e-05 1.41797
0.185 0.01 -0.0069027 6.20885e-05 -1.65349e-05 1.44103
0.19 0.01 -0.00704296 7.52632e-05 -1.68795e-05 1.46935
0.195 0.01 -0.00720794 8.74738e-05 -1.72875e-05 1.50253
0.2 0.01 -0.00739591 9.8872e-05 -1.77543e-05 1.54023
0.205 0.01 -0.00760539 0.000109582 -1.82762e-05 1.58214
0.21 0.01 -0.00783511 0.000119706 -1.88501e-05 1.62801
0.215 0.01 -0.00808396 0.000129325 -1.94732e-05 1.6776
0.22 0.01 -0.008351 0.000138507 -2.01433e-05 1.73073
0.225 0.01 -0.00863538 0.000147304 -2.08583e-05 1.78721
0.23 0.01 -0.00893634 0.000155756 -2.16164e-05 1.84688
0.235 0.01 -0.00925319 0.000163897 -2.24159e-05 1.9096
0.24 0.01 -0.0095853 0.00017175 -2.32553e-05 1.97524
0.245 0.01 -0.00993207 0.000179331 -2.41334e-05 2.04365
0.25 0.01 -0.0102929 0.000186654 -2.50486e-05 2.11472
0.255 0.01 -0.0106674 0.000193724 -2.59999e-05 2.18834
0.26 0.01 -0.0110548 0.000200545 -2.69859e-05 2.26439
0.265 0.01 -0.0114547 0.000207117 -2.80053e-05 2.34274
0.27 0.01 -0.0118666 0.000213435 -2.9057e-05 2.4233
0.275 0.01 -0.0122898 0.000219496 -3.01397e-05 2.50593
0.28 0.01 -0.0127239 0.000225292 -3.1252e-05 2.59054
0.285 0.01 -0.0131683 0.000230814 -3.23926e-05 2.67698
0.29 0.01 -0.0136224 0.000236051 -3.35601e-05 2.76515
0.295 0.01 -0.0140855 0.000240992 -3.47531e-05 2.85492
0.3 0.01 -0.0145571 0.000245626 -3.59701e-05 2.94615
0.305 0.01 -0.0150366 0.000249938 -3.72094e-05 3.03872
0.31 0.01 -0.0155232 0.000253917 -3.84695e-05 3.13248
0.315 0.01 -0.0160162 0.000257547 -3.97486e-05 3.2273
0.32 0.01 -0.016515 0.000260815 -4.10449e-05 3.32303
0.325 0.01 -0.0170188 0.000263707 -4.23567e-05 3.41952
0.33 0.01 -0.0175268 0.000266208 -4.3682e-05 3.51661
0.335 0.01 -0.0180382 0.000268306 -4.50188e-05 3.61416
0.34 0.01 -0.0185523 0.000269985 -4.63651e-05 3.712
0.345 0.01 -0.0190681 0.000271234 -4.77187e-05 3.80996
0.35 0.01 -0.0195849 0.000272038 -4.90774e-05 3.90788
0.355 0.01 -0.0201017 0.000272386 -5.04391e-05 4.00558
0.36 0.01 -0.0206177 0.000272266 -5.18013e-05 4.1029
0.365 0.01 -0.0211319 0.000271667 -5.31617e-05 4.19965
0.37 0.01 -0.0216434 0.000270579 -5.4518e-05 4.29566
0.375 0.01 -0.0221513 0.000268992 -5.58676e-05 4.39074
0.38 0.01 -0.0226545 0.000266898 -5.72079e-05 4.48472
0.385 0.01 -0.0231522 0.000264289 -5.85366e-05 4.5774
0.39 0.01 -0.0236434 0.000261159 -5.98508e-05 4.66861
0.395 0.01 -0.024127 0.000257502 -6.11482e-05 4.75816
0.4 0.01 -0.0246021 0.000253314 -6.24259e-05 4.84587
0.405 0.01 -0.0250676 0.000248592 -6.36813e-05 4.93155
0.41 0.01 -0.0255227 0.000243334 -6.49118e-05 5.01501
0.415 0.01 -0.0259662 0.000237539 -6.61147e-05 5.09608
0.42 0.01 -0.0263972 0.000231208 -6.72873e-05 5.17457
0.425 0.01 -0.0268147 0.000224342 -6.84268e-05 5.25031
0.43 0.01 -0.0272178 0.000216946 -6.95307e-05 5.32312
0.435 0.01 -0.0276054 0.000209023 -7.05963e-05 5.39283
0.44 0.01 -0.0279767 0.00020058 -7.1621e-05 5.45927
0.445 0.01 -0.0283307 0.000191624 -7.26022e-05 5.52226
0.45 0.01 -0.0286665 0.000182165 -7.35373e-05 5.58166
0.455 0.01 -0.0289831 0.000172212 -7.44239e-05 5.6373
0.46 0.01 -0.0292798 0.000161778 -7.52594e-05 5.68903
0.465 0.01 -0.0295557 0.000150876 -7.60417e-05 5.73672
0.47 0.01 -0.02981 0.000139521 -7.67683e-05 5.78021
0.475 0.01 -0.0300418 0.00012773 -7.74369e-05 5.81938
0.48 0.01 -0.0302506 0.00011552 -7.80456e-05 5.85409
0.485 0.01 -0.0304354 0.000102911 -7.85922e-05 5.88425
0.49 0.01 -0.0305958 8.99252e-05 -7.90748e-05 5.90972
0.495 0.01 -0.0307311 7.65838e-05 -7.94915e-05 5.93042
0.5 0.01 -0.0308406 6.29113e-05 -7.98407e-05 5.94624
0.505 0.01 -0.030924 4.89332e-05 -8.01207e-05 5.95711
0.51 0.01 -0.0309806 3.46765e-05 -8.03301e-05 5.96294
0.515 0.01 -0.03101 2.01698e-05 -8.04675e-05 5.96368
0.52 0.01 -0.031012 5.44283e-06 -8.05318e-05 5.95927
0.525 0.01 -0.0309861 -9.47322e-06 -8.0522e-05 5.94967
0.53 0.01 -0.0309321 -2.45459e-05 -8.04372e-05 5.93484
0.535 0.01 -0.0308498 -3.97414e-05 -8.02766e-05 5.91476
0.54 0.01 -0.0307392 -5.50249e-05 -8.00398e-05 5.88942
0.545 0.01 -0.0306 -7.03604e-05 -7.97264e-05 5.85883
0.55 0.01 -0.0304324 -8.57109e-05 -7.93363e-05 5.82299
0.555 0.01 -0.0302363 -0.000101039 -7.88694e-05 5.78192
0.56 0.01 -0.030012 -0.000116305 -7.8326e-05 5.73568
0.565 0.01 -0.0297596 -0.000131469 -7.77064e-05 5.6843
0.57 0.01 -0.0294794 -0.000146493 -7.70113e-05 5.62785
0.575 0.01 -0.0291717 -0.000161336 -7.62415e-05 5.5664
0.58 0.01 -0.028837 -0.000175956 -7.5398e-05 5.50005
0.585 0.01 -0.0284757 -0.000190312 -7.44821e-05 5.42888
0.59 0.01 -0.0280885 -0.000204365 -7.3495e-05 5.35302
0.595 0.01 -0.0276759 -0.000218073 -7.24385e-05 5.27258
0.6 0.01 -0.0272387 -0.000231395 -7.13143e-05 5.18771
0.605 0.01 -0.0267776 -0.000244292 -7.01246e-05 5.09854
0.61 0.01 -0.0262935 -0.000256725 -6.88715e-05 5.00526
0.615 0.01 -0.0257873 -0.000268655 -6.75574e-05 4.90801
0.62 0.01 -0.02526 -0.000280046 -6.6185e-05 4.80699
0.625 0.01 -0.0247126 -0.00029086 -6.4757e-05 4.70239
0.63 0.01 -0.0241463 -0.000301065 -6.32765e-05 4.59442
0.635 0.01 -0.0235621 -0.000310627 -6.17464e-05 4.48328
0.64 0.01 -0.0229613 -0.000319516 -6.01702e-05 4.36921
0.645 0.01 -0.0223452 -0.000327703 -5.85513e-05 4.25242
0.65 0.01 -0.0217151 -0.000335161 -5.68933e-05 4.13316
0.655 0.01 -0.0210723 -0.000341868 -5.51998e-05 4.01168
0.66 0.01 -0.0204183 -0.000347801 -5.34747e-05 3.88822
0.665 0.01 -0.0197544 -0.000352943 -5.17218e-05 3.76305
0.67 0.01 -0.0190821 -0.000357277 -4.99453e-05 3.63642
0.675 0.01 -0.0184029 -0.000360792 -4.81491e-05 3.50861
0.68 0.01 -0.0177183 -0.000363479 -4.63374e-05 3.37987
0.685 0.01 -0.0170298 -0.000365332 -4.45144e-05 3.25049
0.69 0.01 -0.016339 -0.000366349 -4.26841e-05 3.12073
0.695 0.01 -0.0156472 -0.00036653 -4.08509e-05 2.99086
0.7 0.01 -0.0149561 -0.000365881 -3.90189e-05 2.86116
0.705 0.01 -0.0142672 -0.000364409 -3.71922e-05 2.73189
0.71 0.01 -0.0135819 -0.000362127 -3.53748e-05 2.60332
0.715 0.01 -0.0129017 -0.000359049 -3.35709e-05 2.47571
0.72 0.01 -0.012228 -0.000355195 -3.17844e-05 2.34931
0.725 0.01 -0.0115622 -0.000350586 -3.0019e-05 2.22437
0.73 0.01 -0.0109057 -0.000345247 -2.82785e-05 2.10114
0.735 0.01 -0.0102597 -0.000339207 -2.65666e-05 1.97985
0.74 0.01 -0.00962558 -0.000332496 -2.48865e-05 1.86072
0.745 0.01 -0.00900443 -0.00032515 -2.32416e-05 1.74397
0.75 0.01 -0.00839741 -0.000317204 -2.1635e-05 1.62981
0.755 0.01 -0.0078056 -0.000308698 -2.00696e-05 1.51843
0.76 0.01 -0.00722998 -0.000299672 -1.85481e-05 1.41
0.765 0.01 -0.00667147 -0.000290169 -1.70729e-05 1.3047
0.77 0.01 -0.00613092 -0.000280233 -1.56464e-05 1.20269
0.775 0.01 -0.00560909 -0.00026991 -1.42706e-05 1.10409
0.78 0.01 -0.00510666 -0.000259247 -1.29473e-05 1.00905
0.785 0.01 -0.00462424 -0.000248289 -1.16781e-05 0.917665
0.79 0.01 -0.00416233 -0.000237086 -1.04644e-05 0.830042
0.795 0.01 -0.00372136 -0.000225684 -9.30725e-06 0.746262
0.8 0.01 -0.00330168 -0.000214131 -8.20755e-06 0.666392
0.805 0.01 -0.00290355 -0.000202473 -7.16594e-06 0.590485
0.81 0.01 -0.00252714 -0.000190755 -6.18282e-06 0.518578
0.815 0.01 -0.00217255 -0.000179024 -5.25838e-06 0.450694
0.82 0.01 -0.00183979 -0.00016732 -4.39258e-06 0.386844
0.825 0.01 -0.00152879 -0.000155687 -3.58517e-06 0.327021
0.83 0.01 -0.00123943 -0.000144164 -2.8357e-06 0.271208
0.835 0.01 -0.000971487 -0.000132788 -2.14353e-06 0.219371
0.84 0.01 -0.000724689 -0.000121594 -1.50782e-06 0.171469
0.845 0.01 -0.000498693 -0.000110616 -9.27577e-07 0.127444
0.85 0.01 -0.000293102 -9.98833e-05 -4.01649e-07 0.0872292
0.855 0.01 -0.000107459 -8.94241e-05 7.12652e-08 0.0507478
0.86 0.01 5.87414e-05 -7.92633e-05 4.926e-07 0.0179124
0.865 0.01 0.000206051 -6.94234e-05 8.63907e-07 -0.0113732
0.87 0.01 0.000335064 -5.99244e-05 1.18684e-06 -0.0372135
0.875 0.01 0.000446411 -5.07835e-05 1.46316e-06 -0.0597204
0.88 0.01 0.000540757 -4.20159e-05 1.69469e-06 -0.0790126
0.885 0.01 0.000618796 -3.36345e-05 1.88333e-06 -0.0952152
0.89 0.01 0.000681247 -2.56504e-05 2.03104e-06 -0.108459
0.895 0.01 0.000728853 -1.80733e-05 2.13984e-06 -0.11888
0.9 0.01 0.000762379 -1.09116e-05 2.21178e-06 -0.126619
0.905 0.01 0.000782607 -4.1733e-06 2.24896e-06 -0.131821
0.91 0.01 0.000790341 2.13343e-06 2.25352e-06 -0.134637
0.915 0.01 0.000786404 7.99968e-06 2.22764e-06 -0.135222
0.92 0.01 0.000771641 1.34147e-05 2.17353e-06 -0.133737
0.925 0.01 0.000746926 1.83651e-05 2.0935e-06 -0.130348
0.93 0.01 0.000713162 2.28329e-05 1.98989e-06 -0.12523
0.935 0.01 0.000671298 2.67948e-05 1.86517e-06 -0.118565
0.94 0.01 0.000622332 3.02198e-05 1.72194e-06 -0.110548
0.945 0.01 0.000567329 3.30668e-05 1.56298e-06 -0.101384
0.95 0.01 0.000507441 3.52822e-05 1.39128e-06 -0.0912972
0.955 0.01 0.000443926 3.67962e-05 1.21016e-06 -0.0805289
0.96 0.01 0.000378176 3.75189e-05 1.02332e-06 -0.0693442
0.965 0.01 0.000311747 3.73357e-05 8.34973e-07 -0.0580346
0.97 0.01 0.000246396 3.61023e-05 6.49966e-07 -0.0469207
0.975 0.01 0.000184109 3.3642e-05 4.73951e-07 -0.0363518
0.98 0.01 0.000127125 2.97506e-05 3.13547e-07 -0.0266983
0.985 0.01 7.7917e-05 2.42296e-05 1.76445e-07 -0.0183276
0.99 0.01 3.90727e-05 1.70022e-05 7.12508e-08 -0.0115437
0.995 0.01 1.29294e-05 8.48048e-06 6.42291e-09 -0.00645198
1 0.01 6.4239e-07 6.42291e-07 -1.3554e-08 -0.00268251
0 0.015 0 0 -0.000513912 0
0.005 0.015 0 0 0 -255.962
0.01 0.015 -0.152864 0.184875 -0.00180048 -79.253
0.015 0.015 -0.206262 -0.0236386 -0.00184875 -16.6381
0.02 0.015 -0.20462 -0.0572957 -0.00156409 2.30884
0.025 0.015 -0.184604 -0.0522449 -0.00127579 7.91659
0.03 0.015 -0.161074 -0.0416647 -0.00104164 9.23821
0.035 0.015 -0.13902 -0.0325263 -0.000859146 9.10397
0.04 0.015 -0.119732 -0.0256193 -0.000716382 8.48101
0.045 0.015 -0.103251 -0.0205038 -0.000602953 7.72233
0.05 0.015 -0.0892616 -0.0166619 -0.000511343 6.96124
0.055 0.015 -0.0773919 -0.0137069 -0.000436334 6.24757
0.06 0.015 -0.0673072 -0.0113786 -0.000374274 5.59805
0.065 0.015 -0.0587261 -0.00950595 -0.000322547 5.01599
0.07 0.015 -0.0514166 -0.00797495 -0.000279215 4.49916
0.075 0.015 -0.0451875 -0.00670783 -0.000242798 4.04316
0.08 0.015 -0.03988 -0.00564965 -0.000212136 3.64288
0.085 0.015 -0.0353611 -0.00476019 -0.000186301 3.29306
0.09 0.015 -0.0315188 -0.00400902 -0.000164535 2.98868
0.095 0.015 -0.0282577 -0.00337243 -0.000146211 2.72499
0.1 0.015 -0.0254967 -0.00283149 -0.00013081 2.49763
0.105 0.015 -0.0231665 -0.0023708 -0.000117896 2.30261
0.11 0.015 -0.0212077 -0.00197768 -0.000107102 2.13632
0.115 0.015 -0.0195697 -0.00164156 -9.81192e-05 1.99552
0.12 0.015 -0.018209 -0.00135357 -9.06864e-05 1.87731
0.125 0.015 -0.0170883 -0.00110624 -8.45835e-05 1.77911
0.13 0.015 -0.0161758 -0.000893284 -7.9624e-05 1.69864
0.135 0.015 -0.0154445 -0.000709361 -7.56506e-05 1.63388
0.14 0.015 -0.0148712 -0.000549959 -7.25303e-05 1.58307
0.145 0.015 -0.014436 -0.000411253 -7.01509e-05 1.54466
0.15 0.015 -0.0141222 -0.000290008 -6.84177e-05 1.5173
0.155 0.015 -0.0139154 -0.000183485 -6.72508e-05 1.49981
0.16 0.015 -0.0138035 -8.93671e-05 -6.65828e-05 1.49115
0.165 0.015 -0.0137761 -5.69909e-06 -6.63571e-05 1.49045
0.17 0.015 -0.0138245 6.91681e-05 -6.65258e-05 1.49693
0.175 0.015 -0.0139411 0.000136623 -6.70487e-05 1.50992
0.18 0.015 -0.0141196 0.00019783 -6.78919e-05 1.52884
0.185 0.015 -0.0143546 0.000253767 -6.90269e-05 1.55318
0.19 0.015 -0.0146415 0.000305249 -7.04296e-05 1.58251
0.195 0.015 -0.0149765 0.000352956 -7.20794e-05 1.61644
0.2 0.015 -0.0153561 0.00039745 -7.39591e-05 1.65464
0.205 0.015 -0.0157774 0.000439197 -7.60539e-05 1.69683
0.21 0.015 -0.0162379 0.000478577 -7.8351e-05 1.74273
0.215 0.015 -0.0167354 0.000515901 -8.08396e-05 1.79212
0.22 0.015 -0.017268 0.000551421 -8.351e-05 1.84478
0.225 0.015 -0.0178339 0.000585338 -8.63538e-05 1.90054
0.23 0.015 -0.0184316 0.00061781 -8.93634e-05 1.95922
0.235 0.015 -0.0190596 0.00064896 -9.25319e-05 2.02066
0.24 0.015 -0.0197166 0.000678882 -9.5853e-05 2.08471
0.245 0.015 -0.0204014 0.000707643 -9.93207e-05 2.15123
0.25 0.015 -0.0211128 0.000735291 -0.000102929 2.22008
0.255 0.015 -0.0218495 0.000761853 -0.000106674 2.29113
0.26 0.015 -0.0226105 0.000787344 -0.000110548 2.36424
0.265 0.015 -0.0233946 0.000811766 -0.000114547 2.4393
0.27 0.015 -0.0242007 0.000835109 -0.000118666 2.51617
0.275 0.015 -0.0250276 0.000857355 -0.000122898 2.59472
0.28 0.015 -0.0258742 0.000878479 -0.000127239 2.67483
0.285 0.015 -0.0267393 0.000898451 -0.000131683 2.75636
0.29 0.015 -0.0276216 0.000917233 -0.000136224 2.83918
0.295 0.015 -0.0285199 0.000934787 -0.000140855 2.92316
0.3 0.015 -0.0294329 0.000951069 -0.000145571 3.00816
0.305 0.015 -0.0303593 0.000966034 -0.000150366 3.09405
0.31 0.015 -0.0312977 0.000979635 -0.000155232 3.18067
0.315 0.015 -0.0322467 0.000991824 -0.000160162 3.26788
0.32 0.015 -0.0332049 0.00100255 -0.00016515 3.35554
0.325 0.015 -0.0341708 0.00101177 -0.000170188 3.4435
0.33 0.015 -0.0351427 0.00101943 -0.000175268 3.5316
0.335 0.015 -0.0361193 0.00102549 -0.000180382 3.6197
0.34 0.015 -0.0370988 0.0010299 -0.000185523 3.70762
0.345 0.015 -0.0380797 0.00103261 -0.000190681 3.79523
0.35 0.015 -0.0390601 0.00103359 -0.000195849 3.88235
0.355 0.015 -0.0400386 0.00103279 -0.000201017 3.96883
0.36 0.015 -0.0410132 0.00103017 -0.000206177 4.05451
0.365 0.015 -0.0419822 0.00102572 -0.000211319 4.13921
0.37 0.015 -0.0429439 0.00101938 -0.000216434 4.22279
0.375 0.015 -0.0438964 0.00101113 -0.000221513 4.30508
0.38 0.015 -0.0448379 0.00100096 -0.000226546 4.38591
0.385 0.015 -0.0457666 0.000988834 -0.000231523 4.46512
0.39 0.015 -0.0466806 0.000974743 -0.000236434 4.54256
0.395 0.015 -0.0475781 0.000958673 -0.00024127 4.61806
0.4 0.015 -0.0484572 0.000940617 -0.000246021 4.69147
0.405 0.015 -0.0493161 0.00092057 -0.000250676 4.76264
0.41 0.015 -0.050153 0.000898536 -0.000255227 4.8314
0.415 0.015 -0.050966 0.000874519 -0.000259662 4.89762
0.42 0.015 -0.0517533 0.000848529 -0.000263972 4.96114
0.425 0.015 -0.0525131 0.000820584 -0.000268147 5.02182
0.43 0.015 -0.0532437 0.000790703 -0.000272178 5.07952
0.435 0.015 -0.0539433 0.000758912 -0.000276054 5.13412
0.44 0.015 -0.0546102 0.000725241 -0.000279767 5.18547
0.445 0.015 -0.0552428 0.000689726 -0.000283307 5.23346
0.45 0.015 -0.0558395 0.000652409 -0.000286665 5.27796
0.455 0.015 -0.0563986 0.000613336 -0.000289831 5.31886
0.46 0.015 -0.0569187 0.000572557 -0.000292798 5.35605
0.465 0.015 -0.0573983 0.00053013 -0.000295557 5.38944
0.47 0.015 -0.057836 0.000486117 -0.0002981 5.41892
0.475 0.015 -0.0582305 0.000440584 -0.000300418 5.4444
0.48 0.015 -0.0585804 0.000393605 -0.000302506 5.46581
0.485 0.015 -0.0588847 0.000345255 -0.000304355 5.48307
0.49 0.015 -0.0591422 0.000295619 -0.000305959 5.49611
0.495 0.015 -0.0593518 0.000244784 -0.000307311 5.50487
0.5 0.015 -0.0595127 0.000192842 -0.000308407 5.5093
0.505 0.015 -0.059624 0.000139892 -0.00030924 5.50936
0.51 0.015 -0.0596848 8.60349e-05 -0.000309806 5.50501
0.515 0.015 -0.0596947 3.13784e-05 -0.0003101 5.49623
0.52 0.015 -0.0596529 -2.3966e-05 -0.00031012 5.48299
0.525 0.015 -0.0595591 -7.98826e-05 -0.000309861 5.4653
0.53 0.015 -0.0594129 -0.000136251 -0.000309321 5.44313
0.535 0.015 -0.0592141 -0.000192948 -0.000308499 5.41652
0.54 0.015 -0.0589626 -0.000249846 -0.000307392 5.38546
0.545 0.015 -0.0586583 -0.000306814 -0.000306 5.34999
0.55 0.015 -0.0583014 -0.000363717 -0.000304324 5.31015
0.555 0.015 -0.0578921 -0.00042042 -0.000302364 5.26598
0.56 0.015 -0.0574308 -0.000476783 -0.00030012 5.21753
0.565 0.015 -0.0569179 -0.000532664 -0.000297596 5.16487
0.57 0.015 -0.0563542 -0.000587923 -0.000294794 5.10807
0.575 0.015 -0.0557402 -0.000642414 -0.000291717 5.04721
0.58 0.015 -0.0550769 -0.000695993 -0.00028837 4.98239
0.585 0.015 -0.0543653 -0.000748517 -0.000284757 4.91369
0.59 0.015 -0.0536065 -0.00079984 -0.000280885 4.84123
0.595 0.015 -0.0528016 -0.00084982 -0.000276759 4.76513
0.6 0.015 -0.0519522 -0.000898316 -0.000272387 4.68552
0.605 0.015 -0.0510597 -0.000945189 -0.000267776 4.60252
0.61 0.015 -0.0501256 -0.000990301 -0.000262936 4.51627
0.615 0.015 -0.0491517 -0.00103352 -0.000257874 4.42694
0.62 0.015 -0.0481399 -0.00107472 -0.000252601 4.33466
0.625 0.015 -0.047092 -0.00111377 -0.000247127 4.23962
0.63 0.015 -0.0460101 -0.00115056 -0.000241463 4.14197
0.635 0.015 -0.0448963 -0.00118497 -0.000235621 4.04189
0.64 0.015 -0.043753 -0.00121691 -0.000229614 3.93957
0.645 0.015 -0.0425823 -0.00124626 -0.000223453 3.8352
0.65 0.015 -0.0413867 -0.00127294 -0.000217151 3.72897
0.655 0.015 -0.0401687 -0.00129687 -0.000210723 3.62107
0.66 0.015 -0.0389307 -0.00131798 -0.000204183 3.5117
0.665 0.015 -0.0376755 -0.0013362 -0.000197544 3.40108
0.67 0.015 -0.0364056 -0.00135149 -0.000190821 3.2894
0.675 0.015 -0.0351236 -0.0013638 -0.000184029 3.17689
0.68 0.015 -0.0338324 -0.0013731 -0.000177183 3.06374
0.685 0.015 -0.0325346 -0.00137937 -0.000170298 2.95018
0.69 0.015 -0.031233 -0.00138261 -0.00016339 2.83641
0.695 0.015 -0.0299303 -0.00138282 -0.000156472 2.72265
0.7 0.015 -0.0286292 -0.00138002 -0.000149562 2.60911
0.705 0.015 -0.0273324 -0.00137424 -0.000142672 2.496
0.71 0.015 -0.0260427 -0.00136552 -0.000135819 2.38353
0.715 0.015 -0.0247625 -0.00135392 -0.000129017 2.2719
0.72 0.015 -0.0234946 -0.00133949 -0.00012228 2.16131
0.725 0.015 -0.0222413 -0.00132233 -0.000115622 2.05195
0.73 0.015 -0.0210053 -0.00130251 -0.000109057 1.94403
0.735 0.015 -0.0197887 -0.00128014 -0.000102597 1.83773
0.74 0.015 -0.0185939 -0.00125532 -9.62559e-05 1.73321
0.745 0.015 -0.0174231 -0.00122818 -9.00444e-05 1.63067
0.75 0.015 -0.0162783 -0.00119884 -8.39742e-05 1.53026
0.755 0.015 -0.0151614 -0.00116745 -7.8056e-05 1.43213
0.76 0.015 -0.0140744 -0.00113414 -7.22998e-05 1.33645
0.765 0.015 -0.0130188 -0.00109906 -6.67147e-05 1.24334
0.77 0.015 -0.0119962 -0.00106238 -6.13092e-05 1.15293
0.775 0.015 -0.0110081 -0.00102426 -5.60909e-05 1.06536
0.78 0.015 -0.0100557 -0.000984855 -5.10667e-05 0.980711
0.785 0.015 -0.00914009 -0.000944339 -4.62424e-05 0.899099
0.79 0.015 -0.00826235 -0.000902879 -4.16233e-05 0.820607
0.795 0.015 -0.00742326 -0.000860647 -3.72136e-05 0.745311
0.8 0.015 -0.0066235 -0.000817812 -3.30168e-05 0.673276
0.805 0.015 -0.00586358 -0.000774542 -2.90355e-05 0.604556
0.81 0.015 -0.00514388 -0.000731001 -2.52714e-05 0.539194
0.815 0.015 -0.00446463 -0.000687353 -2.17255e-05 0.477219
0.82 0.015 -0.00382591 -0.000643754 -1.83979e-05 0.418651
0.825 0.015 -0.00322767 -0.000600356 -1.52879e-05 0.3635
0.83 0.015 -0.0026697 -0.000557305 -1.23943e-05 0.311761
0.835 0.015 -0.00215167 -0.00051474 -9.71485e-06 0.263422