Title=" Lid Driven Flow"
VARIABLES="X","Y","U","V","psi","xi"
ZONE T= "BOX", I= 201, J=201, F=POINT
0 0 0 0 0.00308 0
0.005 0 0 0 0 0
0.01 0 0 0 0 0
0.015 0 0 0 0 161.891
0.02 0 0 0 0 176.123
0.025 0 0 0 0 155.603
0.03 0 0 0 0 133.212
0.035 0 0 0 0 115.692
0.04 0 0 0 0 102.837
0.045 0 0 0 0 93.3043
0.05 0 0 0 0 85.9822
0.055 0 0 0 0 80.1379
0.06 0 0 0 0 75.3129
0.065 0 0 0 0 71.2184
0.07 0 0 0 0 67.6668
0.075 0 0 0 0 64.5317
0.08 0 0 0 0 61.7246
0.085 0 0 0 0 59.1824
0.09 0 0 0 0 56.8582
0.095 0 0 0 0 54.717
0.1 0 0 0 0 52.7318
0.105 0 0 0 0 50.8818
0.11 0 0 0 0 49.1502
0.115 0 0 0 0 47.5239
0.12 0 0 0 0 45.9919
0.125 0 0 0 0 44.5453
0.13 0 0 0 0 43.1763
0.135 0 0 0 0 41.8786
0.14 0 0 0 0 40.6466
0.145 0 0 0 0 39.4753
0.15 0 0 0 0 38.3605
0.155 0 0 0 0 37.2981
0.16 0 0 0 0 36.2848
0.165 0 0 0 0 35.3173
0.17 0 0 0 0 34.3926
0.175 0 0 0 0 33.508
0.18 0 0 0 0 32.661
0.185 0 0 0 0 31.8491
0.19 0 0 0 0 31.0702
0.195 0 0 0 0 30.3222
0.2 0 0 0 0 29.603
0.205 0 0 0 0 28.9109
0.21 0 0 0 0 28.244
0.215 0 0 0 0 27.6007
0.22 0 0 0 0 26.9795
0.225 0 0 0 0 26.3789
0.23 0 0 0 0 25.7975
0.235 0 0 0 0 25.2338
0.24 0 0 0 0 24.6868
0.245 0 0 0 0 24.1552
0.25 0 0 0 0 23.638
0.255 0 0 0 0 23.1339
0.26 0 0 0 0 22.6422
0.265 0 0 0 0 22.1618
0.27 0 0 0 0 21.6919
0.275 0 0 0 0 21.2317
0.28 0 0 0 0 20.7803
0.285 0 0 0 0 20.3372
0.29 0 0 0 0 19.9015
0.295 0 0 0 0 19.4728
0.3 0 0 0 0 19.0505
0.305 0 0 0 0 18.6339
0.31 0 0 0 0 18.2227
0.315 0 0 0 0 17.8164
0.32 0 0 0 0 17.4146
0.325 0 0 0 0 17.0169
0.33 0 0 0 0 16.6231
0.335 0 0 0 0 16.2327
0.34 0 0 0 0 15.8455
0.345 0 0 0 0 15.4614
0.35 0 0 0 0 15.0802
0.355 0 0 0 0 14.7016
0.36 0 0 0 0 14.3255
0.365 0 0 0 0 13.9519
0.37 0 0 0 0 13.5806
0.375 0 0 0 0 13.2116
0.38 0 0 0 0 12.845
0.385 0 0 0 0 12.4806
0.39 0 0 0 0 12.1185
0.395 0 0 0 0 11.7588
0.4 0 0 0 0 11.4015
0.405 0 0 0 0 11.0467
0.41 0 0 0 0 10.6946
0.415 0 0 0 0 10.3452
0.42 0 0 0 0 9.99863
0.425 0 0 0 0 9.65513
0.43 0 0 0 0 9.31481
0.435 0 0 0 0 8.97787
0.44 0 0 0 0 8.64449
0.445 0 0 0 0 8.31487
0.45 0 0 0 0 7.98921
0.455 0 0 0 0 7.66772
0.46 0 0 0 0 7.3506
0.465 0 0 0 0 7.03809
0.47 0 0 0 0 6.73039
0.475 0 0 0 0 6.42771
0.48 0 0 0 0 6.13028
0.485 0 0 0 0 5.83831
0.49 0 0 0 0 5.55199
0.495 0 0 0 0 5.27152
0.5 0 0 0 0 4.9971
0.505 0 0 0 0 4.72891
0.51 0 0 0 0 4.46711
0.515 0 0 0 0 4.21186
0.52 0 0 0 0 3.96331
0.525 0 0 0 0 3.72159
0.53 0 0 0 0 3.48681
0.535 0 0 0 0 3.25908
0.54 0 0 0 0 3.03849
0.545 0 0 0 0 2.82509
0.55 0 0 0 0 2.61894
0.555 0 0 0 0 2.42009
0.56 0 0 0 0 2.22853
0.565 0 0 0 0 2.04429
0.57 0 0 0 0 1.86733
0.575 0 0 0 0 1.69763
0.58 0 0 0 0 1.53514
0.585 0 0 0 0 1.37979
0.59 0 0 0 0 1.2315
0.595 0 0 0 0 1.09018
0.6 0 0 0 0 0.95572
0.605 0 0 0 0 0.828003
0.61 0 0 0 0 0.706894
0.615 0 0 0 0 0.592251
0.62 0 0 0 0 0.483921
0.625 0 0 0 0 0.381742
0.63 0 0 0 0 0.285545
0.635 0 0 0 0 0.195154
0.64 0 0 0 0 0.110387
0.645 0 0 0 0 0.0310575
0.65 0 0 0 0 -0.0430249
0.655 0 0 0 0 -0.112054
0.66 0 0 0 0 -0.176224
0.665 0 0 0 0 -0.235734
0.67 0 0 0 0 -0.290781
0.675 0 0 0 0 -0.341562
0.68 0 0 0 0 -0.388276
0.685 0 0 0 0 -0.431121
0.69 0 0 0 0 -0.470291
0.695 0 0 0 0 -0.505982
0.7 0 0 0 0 -0.538388
0.705 0 0 0 0 -0.567699
0.71 0 0 0 0 -0.594104
0.715 0 0 0 0 -0.61779
0.72 0 0 0 0 -0.63894
0.725 0 0 0 0 -0.657732
0.73 0 0 0 0 -0.674342
0.735 0 0 0 0 -0.68894
0.74 0 0 0 0 -0.701689
0.745 0 0 0 0 -0.712746
0.75 0 0 0 0 -0.722258
0.755 0 0 0 0 -0.730366
0.76 0 0 0 0 -0.737198
0.765 0 0 0 0 -0.74287
0.77 0 0 0 0 -0.747488
0.775 0 0 0 0 -0.751142
0.78 0 0 0 0 -0.753907
0.785 0 0 0 0 -0.755844
0.79 0 0 0 0 -0.756999
0.795 0 0 0 0 -0.757398
0.8 0 0 0 0 -0.757055
0.805 0 0 0 0 -0.755966
0.81 0 0 0 0 -0.754112
0.815 0 0 0 0 -0.75146
0.82 0 0 0 0 -0.747963
0.825 0 0 0 0 -0.743561
0.83 0 0 0 0 -0.738187
0.835 0 0 0 0 -0.731763
0.84 0 0 0 0 -0.724206
0.845 0 0 0 0 -0.715428
0.85 0 0 0 0 -0.705342
0.855 0 0 0 0 -0.693861
0.86 0 0 0 0 -0.680902
0.865 0 0 0 0 -0.66639
0.87 0 0 0 0 -0.650259
0.875 0 0 0 0 -0.632457
0.88 0 0 0 0 -0.612946
0.885 0 0 0 0 -0.591706
0.89 0 0 0 0 -0.56874
0.895 0 0 0 0 -0.544071
0.9 0 0 0 0 -0.51775
0.905 0 0 0 0 -0.489852
0.91 0 0 0 0 -0.460485
0.915 0 0 0 0 -0.429785
0.92 0 0 0 0 -0.39792
0.925 0 0 0 0 -0.36509
0.93 0 0 0 0 -0.33153
0.935 0 0 0 0 -0.297507
0.94 0 0 0 0 -0.263325
0.945 0 0 0 0 -0.22932
0.95 0 0 0 0 -0.195863
0.955 0 0 0 0 -0.16336
0.96 0 0 0 0 -0.132253
0.965 0 0 0 0 -0.103016
0.97 0 0 0 0 -0.0761585
0.975 0 0 0 0 -0.0522203
0.98 0 0 0 0 -0.0317645
0.985 0 0 0 0 -0.0153598
0.99 0 0 0 0 -0.00353584
0.995 0 0 0 0 0.00332064
1 0 0 0 0 0.00521036
0 0.005 0 0 0 0
0.005 0.005 0 0 0 0
0.01 0.005 0 0 0 73.728
0.015 0.005 0 0 0 62.065
0.02 0.005 0 0 0 45.7128
0.025 0.005 0 0 0 33.9437
0.03 0.005 0 0 0 26.0467
0.035 0.005 0 0 0 20.6208
0.04 0.005 0 0 0 16.7238
0.045 0.005 0 0 0 13.8035
0.05 0.005 0 0 0 11.5397
0.055 0.005 0 0 0 9.74024
0.06 0.005 0 0 0 8.28435
0.065 0.005 0 0 0 7.09171
0.07 0.005 0 0 0 6.10633
0.075 0.005 0 0 0 5.28742
0.08 0.005 0 0 0 4.60419
0.085 0.005 0 0 0 4.03273
0.09 0.005 0 0 0 3.55407
0.095 0.005 0 0 0 3.15294
0.1 0.005 0 0 0 2.81687
0.105 0.005 0 0 0 2.5356
0.11 0.005 0 0 0 2.30066
0.115 0.005 0 0 0 2.105
0.12 0.005 0 0 0 1.94273
0.125 0.005 0 0 0 1.80894
0.13 0.005 0 0 0 1.69952
0.135 0.005 0 0 0 1.61102
0.14 0.005 0 0 0 1.54055
0.145 0.005 0 0 0 1.48569
0.15 0.005 0 0 0 1.44439
0.155 0.005 0 0 0 1.41494
0.16 0.005 0 0 0 1.39591
0.165 0.005 0 0 0 1.38608
0.17 0.005 0 0 0 1.38444
0.175 0.005 0 0 0 1.39012
0.18 0.005 0 0 0 1.40241
0.185 0.005 0 0 0 1.4207
0.19 0.005 0 0 0 1.44447
0.195 0.005 0 0 0 1.47329
0.2 0.005 0 0 0 1.50678
0.205 0.005 0 0 0 1.54463
0.21 0.005 0 0 0 1.58658
0.215 0.005 0 0 0 1.63237
0.22 0.005 0 0 0 1.68181
0.225 0.005 0 0 0 1.73471
0.23 0.005 0 0 0 1.79092
0.235 0.005 0 0 0 1.85028
0.24 0.005 0 0 0 1.91266
0.245 0.005 0 0 0 1.97794
0.25 0.005 0 0 0 2.046
0.255 0.005 0 0 0 2.11672
0.26 0.005 0 0 0 2.18999
0.265 0.005 0 0 0 2.2657
0.27 0.005 0 0 0 2.34375
0.275 0.005 0 0 0 2.42401
0.28 0.005 0 0 0 2.50639
0.285 0.005 0 0 0 2.59076
0.29 0.005 0 0 0 2.67701
0.295 0.005 0 0 0 2.76502
0.3 0.005 0 0 0 2.85467
0.305 0.005 0 0 0 2.94581
0.31 0.005 0 0 0 3.03833
0.315 0.005 0 0 0 3.13209
0.32 0.005 0 0 0 3.22693
0.325 0.005 0 0 0 3.32272
0.33 0.005 0 0 0 3.41931
0.335 0.005 0 0 0 3.51653
0.34 0.005 0 0 0 3.61422
0.345 0.005 0 0 0 3.71223
0.35 0.005 0 0 0 3.81038
0.355 0.005 0 0 0 3.9085
0.36 0.005 0 0 0 4.0064
0.365 0.005 0 0 0 4.10392
0.37 0.005 0 0 0 4.20086
0.375 0.005 0 0 0 4.29703
0.38 0.005 0 0 0 4.39226
0.385 0.005 0 0 0 4.48634
0.39 0.005 0 0 0 4.57908
0.395 0.005 0 0 0 4.67029
0.4 0.005 0 0 0 4.75977
0.405 0.005 0 0 0 4.84732
0.41 0.005 0 0 0 4.93275
0.415 0.005 0 0 0 5.01587
0.42 0.005 0 0 0 5.09647
0.425 0.005 0 0 0 5.17436
0.43 0.005 0 0 0 5.24936
0.435 0.005 0 0 0 5.32127
0.44 0.005 0 0 0 5.38991
0.445 0.005 0 0 0 5.4551
0.45 0.005 0 0 0 5.51665
0.455 0.005 0 0 0 5.57441
0.46 0.005 0 0 0 5.6282
0.465 0.005 0 0 0 5.67785
0.47 0.005 0 0 0 5.72322
0.475 0.005 0 0 0 5.76416
0.48 0.005 0 0 0 5.80053
0.485 0.005 0 0 0 5.8322
0.49 0.005 0 0 0 5.85904
0.495 0.005 0 0 0 5.88094
0.5 0.005 0 0 0 5.8978
0.505 0.005 0 0 0 5.90952
0.51 0.005 0 0 0 5.91603
0.515 0.005 0 0 0 5.91725
0.52 0.005 0 0 0 5.91311
0.525 0.005 0 0 0 5.90359
0.53 0.005 0 0 0 5.88863
0.535 0.005 0 0 0 5.86822
0.54 0.005 0 0 0 5.84235
0.545 0.005 0 0 0 5.81102
0.55 0.005 0 0 0 5.77425
0.555 0.005 0 0 0 5.73207
0.56 0.005 0 0 0 5.68454
0.565 0.005 0 0 0 5.6317
0.57 0.005 0 0 0 5.57363
0.575 0.005 0 0 0 5.51042
0.58 0.005 0 0 0 5.44218
0.585 0.005 0 0 0 5.36901
0.59 0.005 0 0 0 5.29106
0.595 0.005 0 0 0 5.20846
0.6 0.005 0 0 0 5.12137
0.605 0.005 0 0 0 5.02995
0.61 0.005 0 0 0 4.93441
0.615 0.005 0 0 0 4.83491
0.62 0.005 0 0 0 4.73168
0.625 0.005 0 0 0 4.62493
0.63 0.005 0 0 0 4.51489
0.635 0.005 0 0 0 4.40179
0.64 0.005 0 0 0 4.28587
0.645 0.005 0 0 0 4.1674
0.65 0.005 0 0 0 4.04662
0.655 0.005 0 0 0 3.92381
0.66 0.005 0 0 0 3.79924
0.665 0.005 0 0 0 3.67317
0.67 0.005 0 0 0 3.5459
0.675 0.005 0 0 0 3.41769
0.68 0.005 0 0 0 3.28883
0.685 0.005 0 0 0 3.1596
0.69 0.005 0 0 0 3.03027
0.695 0.005 0 0 0 2.90113
0.7 0.005 0 0 0 2.77244
0.705 0.005 0 0 0 2.64448
0.71 0.005 0 0 0 2.5175
0.715 0.005 0 0 0 2.39176
0.72 0.005 0 0 0 2.26751
0.725 0.005 0 0 0 2.14499
0.73 0.005 0 0 0 2.02443
0.735 0.005 0 0 0 1.90605
0.74 0.005 0 0 0 1.79005
0.745 0.005 0 0 0 1.67663
0.75 0.005 0 0 0 1.56598
0.755 0.005 0 0 0 1.45826
0.76 0.005 0 0 0 1.35364
0.765 0.005 0 0 0 1.25225
0.77 0.005 0 0 0 1.15423
0.775 0.005 0 0 0 1.05969
0.78 0.005 0 0 0 0.968728
0.785 0.005 0 0 0 0.881434
0.79 0.005 0 0 0 0.797877
0.795 0.005 0 0 0 0.718114
0.8 0.005 0 0 0 0.642187
0.805 0.005 0 0 0 0.570123
0.81 0.005 0 0 0 0.501938
0.815 0.005 0 0 0 0.437633
0.82 0.005 0 0 0 0.377196
0.825 0.005 0 0 0 0.320604
0.83 0.005 0 0 0 0.267822
0.835 0.005 0 0 0 0.218803
0.84 0.005 0 0 0 0.173492
0.845 0.005 0 0 0 0.131823
0.85 0.005 0 0 0 0.0937204
0.855 0.005 0 0 0 0.0591019
0.86 0.005 0 0 0 0.0278776
0.865 0.005 0 0 0 -4.91994e-05
0.87 0.005 0 0 0 -0.0247809
0.875 0.005 0 0 0 -0.0464251
0.88 0.005 0 0 0 -0.0650939
0.885 0.005 0 0 0 -0.0809033
0.89 0.005 0 0 0 -0.0939727
0.895 0.005 0 0 0 -0.104424
0.9 0.005 0 0 0 -0.112383
0.905 0.005 0 0 0 -0.117977
0.91 0.005 0 0 0 -0.121336
0.915 0.005 0 0 0 -0.122592
0.92 0.005 0 0 0 -0.121881
0.925 0.005 0 0 0 -0.119343
0.93 0.005 0 0 0 -0.115123
0.935 0.005 0 0 0 -0.109371
0.94 0.005 0 0 0 -0.102247
0.945 0.005 0 0 0 -0.0939223
0.95 0.005 0 0 0 -0.0845817
0.955 0.005 0 0 0 -0.0744302
0.96 0.005 0 0 0 -0.0636976
0.965 0.005 0 0 0 -0.052646
0.97 0.005 0 0 0 -0.0415792
0.975 0.005 0 0 0 -0.0308541
0.98 0.005 0 0 0 -0.0208933
0.985 0.005 0 0 0 -0.012196
0.99 0.005 0 0 0 -0.00533624
0.995 0.005 0 0 0 -0.000908926
1 0.005 0 0 0 0.000690725
0 0.01 0 0 0.000690725 0
0.005 0.01 0 0 0 -326.272
0.01 0.01 -0.180038 0.0775813 -0.0009216 -44.4081
0.015 0.01 -0.184835 -0.035019 -0.000775813 9.52427
0.02 0.01 -0.156335 -0.0351517 -0.00057141 19.1126
0.025 0.01 -0.12749 -0.0245827 -0.000424296 18.9882
0.03 0.01 -0.10409 -0.0166536 -0.000325583 16.8249
0.035 0.01 -0.0858845 -0.0116536 -0.00025776 14.4974
0.04 0.01 -0.0716752 -0.00852161 -0.000209047 12.4347
0.045 0.01 -0.0604138 -0.00648017 -0.000172544 10.6902
0.05 0.01 -0.0513405 -0.00507909 -0.000144246 9.22876
0.055 0.01 -0.0439271 -0.00406915 -0.000121753 8.00236
0.06 0.01 -0.0378038 -0.00331067 -0.000103554 6.96881
0.065 0.01 -0.0327057 -0.00272252 -8.86463e-05 6.09421
0.07 0.01 -0.0284372 -0.00225535 -7.63291e-05 5.35177
0.075 0.01 -0.0248495 -0.00187767 -6.60928e-05 4.72021
0.08 0.01 -0.0218267 -0.00156836 -5.75524e-05 4.18236
0.085 0.01 -0.0192763 -0.00131264 -5.04091e-05 3.72418
0.09 0.01 -0.0171233 -0.00109973 -4.44259e-05 3.33402
0.095 0.01 -0.0153063 -0.000921503 -3.94117e-05 3.00213
0.1 0.01 -0.0137744 -0.000771668 -3.52108e-05 2.72029
0.105 0.01 -0.0124849 -0.000645251 -3.1695e-05 2.48153
0.11 0.01 -0.0114023 -0.000538251 -2.87582e-05 2.27991
0.115 0.01 -0.0104967 -0.000447414 -2.63124e-05 2.11038
0.12 0.01 -0.00974277 -0.000370067 -2.4284e-05 1.96862
0.125 0.01 -0.00911923 -0.000304004 -2.26117e-05 1.85094
0.13 0.01 -0.0086081 -0.00024739 -2.12439e-05 1.75419
0.135 0.01 -0.00819415 -0.0001987 -2.01377e-05 1.67566
0.14 0.01 -0.0078645 -0.000156659 -1.92569e-05 1.61305
0.145 0.01 -0.00760826 -0.000120199 -1.85711e-05 1.5644
0.15 0.01 -0.00741622 -8.84276e-05 -1.80548e-05 1.52802
0.155 0.01 -0.00728056 -6.05958e-05 -1.76868e-05 1.50249
0.16 0.01 -0.00719468 -3.60756e-05 -1.74488e-05 1.48657
0.165 0.01 -0.00715298 -1.43401e-05 -1.7326e-05 1.47921
0.17 0.01 -0.00715073 5.05211e-06 -1.73054e-05 1.47952
0.175 0.01 -0.00718389 2.24712e-05 -1.73764e-05 1.48674
0.18 0.01 -0.00724906 3.82269e-05 -1.75301e-05 1.50022
0.185 0.01 -0.00734334 5.25781e-05 -1.77587e-05 1.51938
0.19 0.01 -0.00746426 6.57408e-05 -1.80558e-05 1.54376
0.195 0.01 -0.00760971 7.78947e-05 -1.8416e-05 1.57294
0.2 0.01 -0.00777787 8.9189e-05 -1.88347e-05 1.60655
0.205 0.01 -0.0079672 9.97471e-05 -1.93079e-05 1.64429
0.21 0.01 -0.00817633 0.000109671 -1.98322e-05 1.68588
0.215 0.01 -0.0084041 0.000119043 -2.04046e-05 1.7311
0.22 0.01 -0.00864946 0.000127931 -2.10226e-05 1.77971
0.225 0.01 -0.00891149 0.00013639 -2.16839e-05 1.83154
0.23 0.01 -0.00918936 0.000144463 -2.23864e-05 1.8864
0.235 0.01 -0.00948231 0.000152184 -2.31285e-05 1.94416
0.24 0.01 -0.00978964 0.000159581 -2.39083e-05 2.00464
0.245 0.01 -0.0101107 0.000166672 -2.47243e-05 2.06773
0.25 0.01 -0.0104449 0.000173471 -2.5575e-05 2.13328
0.255 0.01 -0.0107915 0.000179989 -2.6459e-05 2.20117
0.26 0.01 -0.0111501 0.000186231 -2.73749e-05 2.27127
0.265 0.01 -0.01152 0.000192198 -2.83213e-05 2.34347
0.27 0.01 -0.0119007 0.000197891 -2.92968e-05 2.41765
0.275 0.01 -0.0122916 0.000203306 -3.03002e-05 2.49368
0.28 0.01 -0.0126921 0.000208438 -3.13299e-05 2.57144
0.285 0.01 -0.0131016 0.00021328 -3.23845e-05 2.65081
0.29 0.01 -0.0135195 0.000217826 -3.34627e-05 2.73167
0.295 0.01 -0.0139452 0.000222064 -3.45628e-05 2.81388
0.3 0.01 -0.0143781 0.000225987 -3.56833e-05 2.89732
0.305 0.01 -0.0148174 0.000229582 -3.68227e-05 2.98185
0.31 0.01 -0.0152626 0.000232839 -3.79792e-05 3.06734
0.315 0.01 -0.015713 0.000235747 -3.91511e-05 3.15365
0.32 0.01 -0.0161677 0.000238292 -4.03367e-05 3.24063
0.325 0.01 -0.0166262 0.000240465 -4.1534e-05 3.32814
0.33 0.01 -0.0170876 0.000242253 -4.27413e-05 3.41603
0.335 0.01 -0.0175511 0.000243644 -4.39566e-05 3.50416
0.34 0.01 -0.018016 0.000244627 -4.51778e-05 3.59235
0.345 0.01 -0.0184816 0.000245192 -4.64029e-05 3.68046
0.35 0.01 -0.0189468 0.000245327 -4.76298e-05 3.76833
0.355 0.01 -0.019411 0.000245024 -4.88562e-05 3.85579
0.36 0.01 -0.0198732 0.000244272 -5.00801e-05 3.94267
0.365 0.01 -0.0203326 0.000243063 -5.1299e-05 4.02882
0.37 0.01 -0.0207883 0.00024139 -5.25108e-05 4.11406
0.375 0.01 -0.0212394 0.000239246 -5.3713e-05 4.19823
0.38 0.01 -0.021685 0.000236624 -5.49033e-05 4.28115
0.385 0.01 -0.0221242 0.000233521 -5.60793e-05 4.36266
0.39 0.01 -0.0225561 0.000229931 -5.72386e-05 4.44258
0.395 0.01 -0.0229797 0.000225852 -5.83787e-05 4.52074
0.4 0.01 -0.0233943 0.000221283 -5.94972e-05 4.59698
0.405 0.01 -0.0237988 0.000216222 -6.05916e-05 4.67112
0.41 0.01 -0.0241923 0.000210671 -6.16595e-05 4.74301
0.415 0.01 -0.024574 0.000204632 -6.26984e-05 4.81247
0.42 0.01 -0.0249429 0.000198108 -6.37059e-05 4.87934
0.425 0.01 -0.0252982 0.000191103 -6.46796e-05 4.94347
0.43 0.01 -0.025639 0.000183624 -6.56171e-05 5.0047
0.435 0.01 -0.0259645 0.000175677 -6.6516e-05 5.06287
0.44 0.01 -0.0262737 0.000167272 -6.7374e-05 5.11784
0.445 0.01 -0.026566 0.000158418 -6.81888e-05 5.16947
0.45 0.01 -0.0268404 0.000149128 -6.89583e-05 5.21761
0.455 0.01 -0.0270963 0.000139413 -6.96803e-05 5.26214
0.46 0.01 -0.027333 0.000129288 -7.03526e-05 5.30292
0.465 0.01 -0.0275496 0.000118769 -7.09733e-05 5.33983
0.47 0.01 -0.0277455 0.000107873 -7.15404e-05 5.37277
0.475 0.01 -0.0279202 9.66189e-05 -7.20522e-05 5.40161
0.48 0.01 -0.0280729 8.50258e-05 -7.25068e-05 5.42627
0.485 0.01 -0.0282032 7.31154e-05 -7.29026e-05 5.44665
0.49 0.01 -0.0283105 6.09101e-05 -7.32381e-05 5.46267
0.495 0.01 -0.0283943 4.84338e-05 -7.35119e-05 5.47425
0.5 0.01 -0.0284542 3.57117e-05 -7.37226e-05 5.48132
0.505 0.01 -0.0284899 2.27701e-05 -7.38692e-05 5.48383
0.51 0.01 -0.028501 9.63649e-06 -7.39505e-05 5.48173
0.515 0.01 -0.0284873 -3.66042e-06 -7.39658e-05 5.47498
0.52 0.01 -0.0284484 -1.7091e-05 -7.39141e-05 5.46355
0.525 0.01 -0.0283843 -3.06244e-05 -7.37951e-05 5.44742
0.53 0.01 -0.0282949 -4.42293e-05 -7.36081e-05 5.42659
0.535 0.01 -0.0281801 -5.7873e-05 -7.3353e-05 5.40106
0.54 0.01 -0.0280398 -7.15225e-05 -7.30296e-05 5.37084
0.545 0.01 -0.0278743 -8.51439e-05 -7.2638e-05 5.33596
0.55 0.01 -0.0276835 -9.87028e-05 -7.21783e-05 5.29644
0.555 0.01 -0.0274678 -0.000112165 -7.16511e-05 5.25234
0.56 0.01 -0.0272273 -0.000125494 -7.10569e-05 5.20372
0.565 0.01 -0.0269624 -0.000138656 -7.03964e-05 5.15064
0.57 0.01 -0.0266735 -0.000151614 -6.96706e-05 5.09318
0.575 0.01 -0.026361 -0.000164335 -6.88805e-05 5.03144
0.58 0.01 -0.0260254 -0.000176782 -6.80274e-05 4.9655
0.585 0.01 -0.0256673 -0.00018892 -6.71129e-05 4.89549
0.59 0.01 -0.0252873 -0.000200717 -6.61385e-05 4.82153
0.595 0.01 -0.0248861 -0.000212138 -6.51059e-05 4.74374
0.6 0.01 -0.0244645 -0.00022315 -6.40173e-05 4.66227
0.605 0.01 -0.0240233 -0.000233722 -6.28747e-05 4.57728
0.61 0.01 -0.0235633 -0.000243822 -6.16803e-05 4.48891
0.615 0.01 -0.0230854 -0.000253423 -6.04366e-05 4.39735
0.62 0.01 -0.0225906 -0.000262496 -5.91463e-05 4.30277
0.625 0.01 -0.0220798 -0.000271014 -5.78119e-05 4.20534
0.63 0.01 -0.0215543 -0.000278953 -5.64363e-05 4.10528
0.635 0.01 -0.0210149 -0.000286291 -5.50225e-05 4.00277
0.64 0.01 -0.020463 -0.000293007 -5.35736e-05 3.89803
0.645 0.01 -0.0198995 -0.000299082 -5.20927e-05 3.79125
0.65 0.01 -0.0193258 -0.000304501 -5.0583e-05 3.68267
0.655 0.01 -0.018743 -0.000309249 -4.90478e-05 3.5725
0.66 0.01 -0.0181524 -0.000313316 -4.74906e-05 3.46095
0.665 0.01 -0.0175551 -0.000316692 -4.59148e-05 3.34827
0.67 0.01 -0.0169526 -0.000319372 -4.43239e-05 3.23468
0.675 0.01 -0.016346 -0.000321352 -4.27213e-05 3.1204
0.68 0.01 -0.0157367 -0.000322632 -4.11105e-05 3.00566
0.685 0.01 -0.0151259 -0.000323213 -3.94951e-05 2.8907
0.69 0.01 -0.0145148 -0.0003231 -3.78785e-05 2.77574
0.695 0.01 -0.0139048 -0.000322302 -3.62642e-05 2.66101
0.7 0.01 -0.013297 -0.000320828 -3.46556e-05 2.54673
0.705 0.01 -0.0126928 -0.000318691 -3.30561e-05 2.43311
0.71 0.01 -0.0120932 -0.000315906 -3.14688e-05 2.32038
0.715 0.01 -0.0114994 -0.000312493 -2.98971e-05 2.20874
0.72 0.01 -0.0109126 -0.000308471 -2.8344e-05 2.0984
0.725 0.01 -0.0103339 -0.000303862 -2.68125e-05 1.98954
0.73 0.01 -0.00976429 -0.000298693 -2.53055e-05 1.88237
0.735 0.01 -0.00920479 -0.000292989 -2.38257e-05 1.77706
0.74 0.01 -0.00865636 -0.00028678 -2.23757e-05 1.67378
0.745 0.01 -0.00811988 -0.000280096 -2.09579e-05 1.5727
0.75 0.01 -0.00759622 -0.000272969 -1.95748e-05 1.47398
0.755 0.01 -0.00708615 -0.000265431 -1.82283e-05 1.37774
0.76 0.01 -0.0065904 -0.000257518 -1.69205e-05 1.28414
0.765 0.01 -0.00610964 -0.000249264 -1.56532e-05 1.19329
0.77 0.01 -0.00564447 -0.000240706 -1.44279e-05 1.1053
0.775 0.01 -0.00519542 -0.000231879 -1.32461e-05 1.02027
0.78 0.01 -0.00476297 -0.00022282 -1.21091e-05 0.938291
0.785 0.01 -0.00434752 -0.000213566 -1.10179e-05 0.859441
0.79 0.01 -0.00394942 -0.000204152 -9.97348e-06 0.783785
0.795 0.01 -0.00356893 -0.000194615 -8.97644e-06 0.711377
0.8 0.01 -0.00320628 -0.00018499 -8.02734e-06 0.642259
0.805 0.01 -0.00286161 -0.000175312 -7.12654e-06 0.576461
0.81 0.01 -0.00253501 -0.000165613 -6.27423e-06 0.514005
0.815 0.01 -0.00222649 -0.000155928 -5.47041e-06 0.4549
0.82 0.01 -0.00193604 -0.000146286 -4.71494e-06 0.399143
0.825 0.01 -0.00166356 -0.000136717 -4.00754e-06 0.346724
0.83 0.01 -0.0014089 -0.00012725 -3.34776e-06 0.297622
0.835 0.01 -0.00117188 -0.000117911 -2.73503e-06 0.251805
0.84 0.01 -0.000952263 -0.000108724 -2.16864e-06 0.209235
0.845 0.01 -0.000749752 -9.97134e-05 -1.64777e-06 0.169862
0.85 0.01 -0.000564024 -9.08995e-05 -1.17148e-06 0.133633
0.855 0.01 -0.000394715 -8.23015e-05 -7.38753e-07 0.100483
0.86 0.01 -0.000241424 -7.39368e-05 -3.48448e-07 0.0703419
0.865 0.01 -0.000103717 -6.58209e-05 6.37892e-10 0.0431347
0.87 0.01 1.88675e-05 -5.79676e-05 3.09785e-07 0.018779
0.875 0.01 0.000126816 -5.03889e-05 5.80338e-07 -0.00281242
0.88 0.01 0.000220641 -4.30954e-05 8.13698e-07 -0.0217315
0.885 0.01 0.000300873 -3.60961e-05 1.01132e-06 -0.0380746
0.89 0.01 0.000368063 -2.93989e-05 1.17468e-06 -0.0519422
0.895 0.01 0.000422776 -2.3011e-05 1.30533e-06 -0.0634384
0.9 0.01 0.000465595 -1.69387e-05 1.40481e-06 -0.0726709
0.905 0.01 0.000497117 -1.11883e-05 1.47474e-06 -0.0797511
0.91 0.01 0.000517954 -5.76621e-06 1.51672e-06 -0.0847937
0.915 0.01 0.000528734 -6.79666e-07 1.53242e-06 -0.0879174
0.92 0.01 0.000530102 4.06259e-06 1.52353e-06 -0.0892452
0.925 0.01 0.000522725 8.44955e-06 1.49181e-06 -0.0889047
0.93 0.01 0.000507298 1.2467e-05 1.43905e-06 -0.0870297
0.935 0.01 0.000484546 1.60961e-05 1.36715e-06 -0.0837608
0.94 0.01 0.000455239 1.93123e-05 1.2781e-06 -0.0792472
0.945 0.01 0.000420198 2.20832e-05 1.17404e-06 -0.0736486
0.95 0.01 0.000380313 2.43662e-05 1.05728e-06 -0.0671378
0.955 0.01 0.000336561 2.61061e-05 9.30385e-07 -0.0599032
0.96 0.01 0.000290024 2.72311e-05 7.96226e-07 -0.0521524
0.965 0.01 0.000241921 2.76486e-05 6.58079e-07 -0.0441149
0.97 0.01 0.000193635 2.72403e-05 5.19744e-07 -0.0360457
0.975 0.01 0.000146745 2.58578e-05 3.85679e-07 -0.0282258
0.98 0.01 0.00010305 2.33229e-05 2.61168e-07 -0.0209586
0.985 0.01 6.45766e-05 1.94465e-05 1.52451e-07 -0.0145534
0.99 0.01 3.35045e-05 1.41089e-05 6.67031e-08 -0.00928185
0.995 0.01 1.19204e-05 7.53372e-06 1.13615e-08 -0.00527314
1 0.01 1.13385e-06 1.13615e-06 -8.6342e-09 -0.00228948
0 0.015 0 0 -0.000907077 0
0.005 0.015 0 0 0 -255.969
0.01 0.015 -0.15284 0.184835 -0.00180038 -79.2635
0.015 0.015 -0.206199 -0.0237038 -0.00184835 -16.6417
0.02 0.015 -0.204525 -0.0573452 -0.00156335 2.31711
0.025 0.015 -0.184509 -0.0522449 -0.0012749 7.9338
0.03 0.015 -0.161021 -0.0416052 -0.0010409 9.2611
0.035 0.015 -0.139049 -0.0324146 -0.000858845 9.13123
0.04 0.015 -0.119875 -0.0254707 -0.000716752 8.51278
0.045 0.015 -0.103529 -0.0203347 -0.000604138 7.75945
0.05 0.015 -0.0896835 -0.0164867 -0.000513405 7.00461
0.055 0.015 -0.0779581 -0.0135367 -0.000439271 6.29786
0.06 0.015 -0.0680106 -0.0112214 -0.000378038 5.65561
0.065 0.015 -0.0595545 -0.00936665 -0.000327057 5.08079
0.07 0.015 -0.0523547 -0.00785621 -0.000284371 4.57086
0.075 0.015 -0.0462185 -0.00661047 -0.000248495 4.12119
0.08 0.015 -0.0409866 -0.0055732 -0.000218266 3.72646
0.085 0.015 -0.0365266 -0.00470333 -0.000192762 3.38135
0.09 0.015 -0.0327273 -0.0039699 -0.000171233 3.08076
0.095 0.015 -0.0294952 -0.00334892 -0.000153063 2.81995
0.1 0.015 -0.0267505 -0.00282141 -0.000137743 2.59459
0.105 0.015 -0.0244257 -0.00237202 -0.000124849 2.40074
0.11 0.015 -0.0224632 -0.00198819 -0.000114023 2.23488
0.115 0.015 -0.0208137 -0.00165954 -0.000104967 2.09382
0.12 0.015 -0.0194352 -0.00137744 -9.74275e-05 1.97476
0.125 0.015 -0.0182917 -0.00113465 -9.11921e-05 1.87519
0.13 0.015 -0.0173524 -0.000925067 -8.60808e-05 1.7929
0.135 0.015 -0.0165913 -0.000743582 -8.19413e-05 1.72596
0.14 0.015 -0.0159858 -0.000585866 -7.86448e-05 1.67264
0.145 0.015 -0.0155167 -0.000448263 -7.60825e-05 1.63145
0.15 0.015 -0.0151678 -0.000327686 -7.4162e-05 1.60109
0.155 0.015 -0.014925 -0.000221521 -7.28054e-05 1.5804
0.16 0.015 -0.0147764 -0.00012756 -7.19466e-05 1.5684
0.165 0.015 -0.0147118 -4.39372e-05 -7.15297e-05 1.5642
0.17 0.015 -0.0147226 3.09235e-05 -7.15071e-05 1.56706
0.175 0.015 -0.0148012 9.83518e-05 -7.18388e-05 1.57632
0.18 0.015 -0.0149414 0.000159467 -7.24905e-05 1.59139
0.185 0.015 -0.0151377 0.000215212 -7.34333e-05 1.61178
0.19 0.015 -0.0153854 0.000266377 -7.46425e-05 1.63704
0.195 0.015 -0.0156805 0.000313623 -7.6097e-05 1.66681
0.2 0.015 -0.0160194 0.000357501 -7.77786e-05 1.70072
0.205 0.015 -0.0163992 0.000398471 -7.96719e-05 1.73849
0.21 0.015 -0.0168172 0.000436912 -8.17632e-05 1.77986
0.215 0.015 -0.0172711 0.000473136 -8.40409e-05 1.82457
0.22 0.015 -0.0177588 0.000507399 -8.64945e-05 1.87242
0.225 0.015 -0.0182784 0.000539907 -8.91148e-05 1.92321
0.23 0.015 -0.0188282 0.000570827 -9.18935e-05 1.97676
0.235 0.015 -0.0194068 0.000600289 -9.4823e-05 2.03291
0.24 0.015 -0.0200126 0.000628396 -9.78963e-05 2.09149
0.245 0.015 -0.0206443 0.000655223 -0.000101107 2.15236
0.25 0.015 -0.0213006 0.000680828 -0.000104449 2.21538
0.255 0.015 -0.0219803 0.000705249 -0.000107915 2.28041
0.26 0.015 -0.0226822 0.000728508 -0.000111501 2.34731
0.265 0.015 -0.0234049 0.000750616 -0.0001152 2.41596
0.27 0.015 -0.0241474 0.000771574 -0.000119007 2.48622
0.275 0.015 -0.0249085 0.000791373 -0.000122916 2.55797
0.28 0.015 -0.0256868 0.000809996 -0.000126921 2.63107
0.285 0.015 -0.0264813 0.000827422 -0.000131016 2.70539
0.29 0.015 -0.0272907 0.000843623 -0.000135195 2.78081
0.295 0.015 -0.0281137 0.000858568 -0.000139452 2.85718
0.3 0.015 -0.028949 0.000872223 -0.000143781 2.93438
0.305 0.015 -0.0297952 0.000884552 -0.000148175 3.01227
0.31 0.015 -0.0306511 0.000895516 -0.000152626 3.0907
0.315 0.015 -0.0315152 0.000905075 -0.00015713 3.16955
0.32 0.015 -0.0323861 0.000913191 -0.000161677 3.24867
0.325 0.015 -0.0332624 0.000919822 -0.000166262 3.3279
0.33 0.015 -0.0341425 0.000924932 -0.000170876 3.40712
0.335 0.015 -0.035025 0.000928479 -0.000175511 3.48617
0.34 0.015 -0.0359083 0.000930429 -0.000180161 3.56491
0.345 0.015 -0.0367908 0.000930746 -0.000184816 3.64318
0.35 0.015 -0.0376709 0.000929397 -0.000189468 3.72084
0.355 0.015 -0.038547 0.00092635 -0.00019411 3.79773
0.36 0.015 -0.0394175 0.000921578 -0.000198732 3.87371
0.365 0.015 -0.0402806 0.000915055 -0.000203326 3.94862
0.37 0.015 -0.0411348 0.000906761 -0.000207883 4.02231
0.375 0.015 -0.0419783 0.000896675 -0.000212394 4.09463
0.38 0.015 -0.0428093 0.000884783 -0.00021685 4.16544
0.385 0.015 -0.0436263 0.000871075 -0.000221242 4.23459
0.39 0.015 -0.0444275 0.000855542 -0.000225561 4.30192
0.395 0.015 -0.0452112 0.000838183 -0.000229798 4.3673
0.4 0.015 -0.0459757 0.000818998 -0.000233943 4.43059
0.405 0.015 -0.0467194 0.000797993 -0.000237988 4.49164
0.41 0.015 -0.0474405 0.000775178 -0.000241923 4.55031
0.415 0.015 -0.0481374 0.000750569 -0.00024574 4.60649
0.42 0.015 -0.0488084 0.000724185 -0.00024943 4.66002
0.425 0.015 -0.0494521 0.00069605 -0.000252983 4.7108
0.43 0.015 -0.0500668 0.000666195 -0.000256391 4.75869
0.435 0.015 -0.050651 0.000634653 -0.000259645 4.80359
0.44 0.015 -0.0512032 0.000601463 -0.000262738 4.84538
0.445 0.015 -0.051722 0.000566669 -0.00026566 4.88395
0.45 0.015 -0.0522059 0.000530321 -0.000268405 4.9192
0.455 0.015 -0.0526537 0.000492472 -0.000270964 4.95105
0.46 0.015 -0.053064 0.000453181 -0.00027333 4.97939
0.465 0.015 -0.0534357 0.000412511 -0.000275496 5.00414
0.47 0.015 -0.0537675 0.000370532 -0.000277456 5.02524
0.475 0.015 -0.0540585 0.000327316 -0.000279202 5.04261
0.48 0.015 -0.0543075 0.000282941 -0.00028073 5.05618
0.485 0.015 -0.0545138 0.00023749 -0.000282032 5.06591
0.49 0.015 -0.0546763 0.000191049 -0.000283105 5.07174
0.495 0.015 -0.0547943 0.000143709 -0.000283944 5.07363
0.5 0.015 -0.0548673 9.5566e-05 -0.000284543 5.07156
0.505 0.015 -0.0548945 4.67183e-05 -0.0002849 5.06549
0.51 0.015 -0.0548755 -2.73079e-06 -0.000285011 5.05542
0.515 0.015 -0.05481 -5.26748e-05 -0.000284873 5.04132
0.52 0.015 -0.0546975 -0.000103004 -0.000284485 5.0232
0.525 0.015 -0.0545379 -0.000153606 -0.000283844 5.00108
0.53 0.015 -0.0543312 -0.000204364 -0.00028295 4.97496
0.535 0.015 -0.0540773 -0.00025516 -0.000281801 4.94486
0.54 0.015 -0.0537763 -0.000305875 -0.000280399 4.91083
0.545 0.015 -0.0534286 -0.000356385 -0.000278743 4.8729
0.55 0.015 -0.0530344 -0.000406568 -0.000276836 4.83112
0.555 0.015 -0.0525941 -0.000456298 -0.000274679 4.78555
0.56 0.015 -0.0521085 -0.00050545 -0.000272274 4.73626
0.565 0.015 -0.0515781 -0.000553899 -0.000269625 4.68332
0.57 0.015 -0.0510036 -0.000601518 -0.000266736 4.6268
0.575 0.015 -0.0503862 -0.000648184 -0.000263611 4.56681
0.58 0.015 -0.0497266 -0.000693771 -0.000260255 4.50343
0.585 0.015 -0.049026 -0.000738159 -0.000256674 4.43678
0.59 0.015 -0.0482857 -0.000781227 -0.000252874 4.36697
0.595 0.015 -0.047507 -0.000822858 -0.000248862 4.2941
0.6 0.015 -0.0466912 -0.000862937 -0.000244646 4.21832
0.605 0.015 -0.04584 -0.000901355 -0.000240234 4.13975
0.61 0.015 -0.0449549 -0.000938004 -0.000235633 4.05853
0.615 0.015 -0.0440375 -0.000972785 -0.000230854 3.9748
0.62 0.015 -0.0430898 -0.0010056 -0.000225906 3.88873
0.625 0.015 -0.0421135 -0.00103636 -0.000220799 3.80045
0.63 0.015 -0.0411106 -0.00106497 -0.000215543 3.71013
0.635 0.015 -0.040083 -0.00109137 -0.00021015 3.61794
0.64 0.015 -0.039033 -0.00111549 -0.00020463 3.52404
0.645 0.015 -0.0379625 -0.00113725 -0.000198996 3.4286
0.65 0.015 -0.0368738 -0.0011566 -0.000193259 3.3318
0.655 0.015 -0.035769 -0.0011735 -0.000187431 3.23382
0.66 0.015 -0.0346504 -0.00118792 -0.000181524 3.13484
0.665 0.015 -0.0335204 -0.00119981 -0.000175552 3.03503
0.67 0.015 -0.0323811 -0.00120917 -0.000169527 2.93457
0.675 0.015 -0.0312349 -0.00121597 -0.000163461 2.83366
0.68 0.015 -0.0300841 -0.00122023 -0.000157368 2.73246
0.685 0.015 -0.028931 -0.00122195 -0.000151259 2.63117
0.69 0.015 -0.0277779 -0.00122114 -0.000145149 2.52996
0.695 0.015 -0.0266271 -0.00121784 -0.000139048 2.42901
0.7 0.015 -0.0254808 -0.00121209 -0.000132971 2.3285
0.705 0.015 -0.0243412 -0.00120392 -0.000126928 2.2286
0.71 0.015 -0.0232105 -0.00119339 -0.000120932 2.12948
0.715 0.015 -0.0220908 -0.00118058 -0.000114994 2.0313
0.72 0.015 -0.020984 -0.00116554 -0.000109127 1.93423
0.725 0.015 -0.0198923 -0.00114837 -0.000103339 1.83842
0.73 0.015 -0.0188175 -0.00112915 -9.76433e-05 1.74403
0.735 0.015 -0.0177615 -0.00110797 -9.20482e-05 1.65121
0.74 0.015 -0.0167259 -0.00108494 -8.65638e-05 1.56008
0.745 0.015 -0.0157124 -0.00106017 -8.11991e-05 1.47079
0.75 0.015 -0.0147226 -0.00103376 -7.59624e-05 1.38346
0.755 0.015 -0.0137579 -0.00100584 -7.08617e-05 1.2982
0.76 0.015 -0.0128196 -0.000976531 -6.59042e-05 1.21514
0.765 0.015 -0.011909 -0.000945954 -6.10966e-05 1.13437
0.77 0.015 -0.0110272 -0.000914239 -5.64448e-05 1.05599
0.775 0.015 -0.0101752 -0.000881514 -5.19543e-05 0.980075
0.78 0.015 -0.00935392 -0.000847911 -4.76298e-05 0.906717
0.785 0.015 -0.00856407 -0.000813561 -4.34753e-05 0.835978
0.79 0.015 -0.00780633 -0.000778594 -3.94942e-05 0.767921
0.795 0.015 -0.00708124 -0.00074314 -3.56894e-05 0.702595
0.8 0.015 -0.00638923 -0.000707327 -3.20629e-05 0.640043
0.805 0.015 -0.0057306 -0.00067128 -2.86161e-05 0.580299
0.81 0.015 -0.00510555 -0.00063512 -2.53501e-05 0.523388
0.815 0.015 -0.00451416 -0.000598968 -2.22649e-05 0.469326
0.82 0.015 -0.00395641 -0.000562937 -1.93604e-05 0.418121
0.825 0.015 -0.00343219 -0.000527136 -1.66355e-05 0.369772
0.83 0.015 -0.00294128 -0.000491669 -1.4089e-05 0.32427
0.835 0.015 -0.00248335 -0.000456635 -1.17188e-05 0.281599