Title=" Lid Driven Flow"
VARIABLES="X","Y","U","V","psi","xi"
ZONE T= "BOX", I= 257, J=257, F=POINT
0 0 0 0 -306.124 0
0.00390625 0 0 0 0 0
0.0078125 0 0 0 0 0
0.0117188 0 0 0 0 -416.842
0.015625 0 0 0 0 -326.386
0.0195313 0 0 0 0 -259.793
0.0234375 0 0 0 0 -212.815
0.0273438 0 0 0 0 -179.528
0.03125 0 0 0 0 -155.455
0.0351563 0 0 0 0 -137.578
0.0390625 0 0 0 0 -123.927
0.0429688 0 0 0 0 -113.22
0.046875 0 0 0 0 -104.613
0.0507813 0 0 0 0 -97.5399
0.0546875 0 0 0 0 -91.6164
0.0585938 0 0 0 0 -86.5737
0.0625 0 0 0 0 -82.2201
0.0664063 0 0 0 0 -78.416
0.0703125 0 0 0 0 -75.0575
0.0742188 0 0 0 0 -72.0657
0.078125 0 0 0 0 -69.3799
0.0820313 0 0 0 0 -66.9522
0.0859375 0 0 0 0 -64.7446
0.0898438 0 0 0 0 -62.7263
0.09375 0 0 0 0 -60.8724
0.0976563 0 0 0 0 -59.1621
0.101563 0 0 0 0 -57.5782
0.105469 0 0 0 0 -56.1062
0.109375 0 0 0 0 -54.7337
0.113281 0 0 0 0 -53.4503
0.117188 0 0 0 0 -52.2469
0.121094 0 0 0 0 -51.1158
0.125 0 0 0 0 -50.0501
0.128906 0 0 0 0 -49.0439
0.132813 0 0 0 0 -48.092
0.136719 0 0 0 0 -47.1897
0.140625 0 0 0 0 -46.3331
0.144531 0 0 0 0 -45.5184
0.148438 0 0 0 0 -44.7424
0.152344 0 0 0 0 -44.0022
0.15625 0 0 0 0 -43.2952
0.160156 0 0 0 0 -42.619
0.164063 0 0 0 0 -41.9715
0.167969 0 0 0 0 -41.3507
0.171875 0 0 0 0 -40.7549
0.175781 0 0 0 0 -40.1825
0.179688 0 0 0 0 -39.632
0.183594 0 0 0 0 -39.1021
0.1875 0 0 0 0 -38.5915
0.191406 0 0 0 0 -38.0992
0.195313 0 0 0 0 -37.6239
0.199219 0 0 0 0 -37.1649
0.203125 0 0 0 0 -36.7211
0.207031 0 0 0 0 -36.2918
0.210938 0 0 0 0 -35.8762
0.214844 0 0 0 0 -35.4737
0.21875 0 0 0 0 -35.0834
0.222656 0 0 0 0 -34.7048
0.226563 0 0 0 0 -34.3374
0.230469 0 0 0 0 -33.9806
0.234375 0 0 0 0 -33.6338
0.238281 0 0 0 0 -33.2967
0.242188 0 0 0 0 -32.9687
0.246094 0 0 0 0 -32.6495
0.25 0 0 0 0 -32.3386
0.253906 0 0 0 0 -32.0358
0.257813 0 0 0 0 -31.7406
0.261719 0 0 0 0 -31.4527
0.265625 0 0 0 0 -31.1718
0.269531 0 0 0 0 -30.8976
0.273438 0 0 0 0 -30.6299
0.277344 0 0 0 0 -30.3683
0.28125 0 0 0 0 -30.1127
0.285156 0 0 0 0 -29.8627
0.289063 0 0 0 0 -29.6182
0.292969 0 0 0 0 -29.379
0.296875 0 0 0 0 -29.1448
0.300781 0 0 0 0 -28.9154
0.304688 0 0 0 0 -28.6908
0.308594 0 0 0 0 -28.4705
0.3125 0 0 0 0 -28.2546
0.316406 0 0 0 0 -28.0429
0.320313 0 0 0 0 -27.8351
0.324219 0 0 0 0 -27.6312
0.328125 0 0 0 0 -27.431
0.332031 0 0 0 0 -27.2343
0.335938 0 0 0 0 -27.0411
0.339844 0 0 0 0 -26.8511
0.34375 0 0 0 0 -26.6643
0.347656 0 0 0 0 -26.4806
0.351563 0 0 0 0 -26.2998
0.355469 0 0 0 0 -26.1218
0.359375 0 0 0 0 -25.9465
0.363281 0 0 0 0 -25.7739
0.367188 0 0 0 0 -25.6037
0.371094 0 0 0 0 -25.4359
0.375 0 0 0 0 -25.2704
0.378906 0 0 0 0 -25.1071
0.382813 0 0 0 0 -24.9459
0.386719 0 0 0 0 -24.7867
0.390625 0 0 0 0 -24.6295
0.394531 0 0 0 0 -24.4741
0.398438 0 0 0 0 -24.3204
0.402344 0 0 0 0 -24.1684
0.40625 0 0 0 0 -24.0179
0.410156 0 0 0 0 -23.869
0.414063 0 0 0 0 -23.7214
0.417969 0 0 0 0 -23.5752
0.421875 0 0 0 0 -23.4303
0.425781 0 0 0 0 -23.2865
0.429688 0 0 0 0 -23.1438
0.433594 0 0 0 0 -23.0022
0.4375 0 0 0 0 -22.8615
0.441406 0 0 0 0 -22.7216
0.445313 0 0 0 0 -22.5826
0.449219 0 0 0 0 -22.4443
0.453125 0 0 0 0 -22.3066
0.457031 0 0 0 0 -22.1696
0.460938 0 0 0 0 -22.0331
0.464844 0 0 0 0 -21.897
0.46875 0 0 0 0 -21.7614
0.472656 0 0 0 0 -21.626
0.476563 0 0 0 0 -21.491
0.480469 0 0 0 0 -21.3562
0.484375 0 0 0 0 -21.2215
0.488281 0 0 0 0 -21.087
0.492188 0 0 0 0 -20.9525
0.496094 0 0 0 0 -20.818
0.5 0 0 0 0 -20.6835
0.503906 0 0 0 0 -20.549
0.507813 0 0 0 0 -20.4143
0.511719 0 0 0 0 -20.2796
0.515625 0 0 0 0 -20.1446
0.519531 0 0 0 0 -20.0095
0.523438 0 0 0 0 -19.8742
0.527344 0 0 0 0 -19.7387
0.53125 0 0 0 0 -19.603
0.535156 0 0 0 0 -19.4671
0.539063 0 0 0 0 -19.3309
0.542969 0 0 0 0 -19.1946
0.546875 0 0 0 0 -19.0582
0.550781 0 0 0 0 -18.9216
0.554688 0 0 0 0 -18.7849
0.558594 0 0 0 0 -18.6481
0.5625 0 0 0 0 -18.5114
0.566406 0 0 0 0 -18.3747
0.570313 0 0 0 0 -18.2382
0.574219 0 0 0 0 -18.1019
0.578125 0 0 0 0 -17.9659
0.582031 0 0 0 0 -17.8303
0.585938 0 0 0 0 -17.6952
0.589844 0 0 0 0 -17.5608
0.59375 0 0 0 0 -17.4271
0.597656 0 0 0 0 -17.2943
0.601563 0 0 0 0 -17.1626
0.605469 0 0 0 0 -17.0321
0.609375 0 0 0 0 -16.9029
0.613281 0 0 0 0 -16.7752
0.617188 0 0 0 0 -16.6492
0.621094 0 0 0 0 -16.5251
0.625 0 0 0 0 -16.403
0.628906 0 0 0 0 -16.2832
0.632813 0 0 0 0 -16.1659
0.636719 0 0 0 0 -16.0512
0.640625 0 0 0 0 -15.9393
0.644531 0 0 0 0 -15.8305
0.648438 0 0 0 0 -15.725
0.652344 0 0 0 0 -15.6229
0.65625 0 0 0 0 -15.5246
0.660156 0 0 0 0 -15.4301
0.664063 0 0 0 0 -15.3397
0.667969 0 0 0 0 -15.2536
0.671875 0 0 0 0 -15.172
0.675781 0 0 0 0 -15.0951
0.679688 0 0 0 0 -15.023
0.683594 0 0 0 0 -14.956
0.6875 0 0 0 0 -14.8941
0.691406 0 0 0 0 -14.8376
0.695313 0 0 0 0 -14.7867
0.699219 0 0 0 0 -14.7414
0.703125 0 0 0 0 -14.7019
0.707031 0 0 0 0 -14.6683
0.710938 0 0 0 0 -14.6407
0.714844 0 0 0 0 -14.6193
0.71875 0 0 0 0 -14.6041
0.722656 0 0 0 0 -14.5951
0.726563 0 0 0 0 -14.5926
0.730469 0 0 0 0 -14.5965
0.734375 0 0 0 0 -14.6069
0.738281 0 0 0 0 -14.6238
0.742188 0 0 0 0 -14.6473
0.746094 0 0 0 0 -14.6774
0.75 0 0 0 0 -14.7142
0.753906 0 0 0 0 -14.7578
0.757813 0 0 0 0 -14.8081
0.761719 0 0 0 0 -14.8651
0.765625 0 0 0 0 -14.9291
0.769531 0 0 0 0 -15
0.773438 0 0 0 0 -15.0779
0.777344 0 0 0 0 -15.1629
0.78125 0 0 0 0 -15.2552
0.785156 0 0 0 0 -15.3548
0.789063 0 0 0 0 -15.462
0.792969 0 0 0 0 -15.5771
0.796875 0 0 0 0 -15.7002
0.800781 0 0 0 0 -15.8316
0.804688 0 0 0 0 -15.9718
0.808594 0 0 0 0 -16.1212
0.8125 0 0 0 0 -16.2802
0.816406 0 0 0 0 -16.4495
0.820313 0 0 0 0 -16.6296
0.824219 0 0 0 0 -16.8214
0.828125 0 0 0 0 -17.0256
0.832031 0 0 0 0 -17.2433
0.835938 0 0 0 0 -17.4755
0.839844 0 0 0 0 -17.7235
0.84375 0 0 0 0 -17.9885
0.847656 0 0 0 0 -18.2721
0.851563 0 0 0 0 -18.576
0.855469 0 0 0 0 -18.902
0.859375 0 0 0 0 -19.2521
0.863281 0 0 0 0 -19.6287
0.867188 0 0 0 0 -20.0341
0.871094 0 0 0 0 -20.4711
0.875 0 0 0 0 -20.9426
0.878906 0 0 0 0 -21.4518
0.882813 0 0 0 0 -22.0023
0.886719 0 0 0 0 -22.5978
0.890625 0 0 0 0 -23.2425
0.894531 0 0 0 0 -23.941
0.898438 0 0 0 0 -24.6979
0.902344 0 0 0 0 -25.5188
0.90625 0 0 0 0 -26.4093
0.910156 0 0 0 0 -27.3758
0.914063 0 0 0 0 -28.4252
0.917969 0 0 0 0 -29.5652
0.921875 0 0 0 0 -30.8044
0.925781 0 0 0 0 -32.1522
0.929688 0 0 0 0 -33.6198
0.933594 0 0 0 0 -35.2197
0.9375 0 0 0 0 -36.9668
0.941406 0 0 0 0 -38.879
0.945313 0 0 0 0 -40.9781
0.949219 0 0 0 0 -43.2913
0.953125 0 0 0 0 -45.8535
0.957031 0 0 0 0 -48.71
0.960938 0 0 0 0 -51.9214
0.964844 0 0 0 0 -55.5709
0.96875 0 0 0 0 -59.775
0.972656 0 0 0 0 -64.7022
0.976563 0 0 0 0 -70.6043
0.980469 0 0 0 0 -77.8732
0.984375 0 0 0 0 -87.1512
0.988281 0 0 0 0 -99.5688
0.992188 0 0 0 0 -117.314
0.996094 0 0 0 0 -145.197
1 0 0 0 0 -195.755
0 0.00390625 0 0 0 0
0.00390625 0.00390625 0 0 0 0
0.0078125 0.00390625 0 0 0 -0.000301909
0.0117188 0.00390625 0 0 0 -0.000827432
0.015625 0.00390625 0 0 0 -0.00125433
0.0195313 0.00390625 0 0 0 -0.00140026
0.0234375 0.00390625 0 0 0 -0.0011778
0.0273438 0.00390625 0 0 0 -0.00055351
0.03125 0.00390625 0 0 0 0.000476722
0.0351563 0.00390625 0 0 0 0.00190127
0.0390625 0.00390625 0 0 0 0.00370023
0.0429688 0.00390625 0 0 0 0.00584959
0.046875 0.00390625 0 0 0 0.00832358
0.0507813 0.00390625 0 0 0 0.0110961
0.0546875 0.00390625 0 0 0 0.0141415
0.0585938 0.00390625 0 0 0 0.0174351
0.0625 0.00390625 0 0 0 0.0209534
0.0664063 0.00390625 0 0 0 0.0246744
0.0703125 0.00390625 0 0 0 0.0285773
0.0742188 0.00390625 0 0 0 0.0326429
0.078125 0.00390625 0 0 0 0.0368536
0.0820313 0.00390625 0 0 0 0.0411928
0.0859375 0.00390625 0 0 0 0.0456455
0.0898438 0.00390625 0 0 0 0.050198
0.09375 0.00390625 0 0 0 0.0548375
0.0976563 0.00390625 0 0 0 0.0595527
0.101563 0.00390625 0 0 0 0.0643331
0.105469 0.00390625 0 0 0 0.0691693
0.109375 0.00390625 0 0 0 0.0740527
0.113281 0.00390625 0 0 0 0.0789757
0.117188 0.00390625 0 0 0 0.0839314
0.121094 0.00390625 0 0 0 0.0889135
0.125 0.00390625 0 0 0 0.0939166
0.128906 0.00390625 0 0 0 0.0989358
0.132813 0.00390625 0 0 0 0.103967
0.136719 0.00390625 0 0 0 0.109005
0.140625 0.00390625 0 0 0 0.114048
0.144531 0.00390625 0 0 0 0.119092
0.148438 0.00390625 0 0 0 0.124135
0.152344 0.00390625 0 0 0 0.129174
0.15625 0.00390625 0 0 0 0.134208
0.160156 0.00390625 0 0 0 0.139233
0.164063 0.00390625 0 0 0 0.14425
0.167969 0.00390625 0 0 0 0.149256
0.171875 0.00390625 0 0 0 0.15425
0.175781 0.00390625 0 0 0 0.159231
0.179688 0.00390625 0 0 0 0.164198
0.183594 0.00390625 0 0 0 0.169151
0.1875 0.00390625 0 0 0 0.174088
0.191406 0.00390625 0 0 0 0.179008
0.195313 0.00390625 0 0 0 0.183912
0.199219 0.00390625 0 0 0 0.188798
0.203125 0.00390625 0 0 0 0.193666
0.207031 0.00390625 0 0 0 0.198516
0.210938 0.00390625 0 0 0 0.203346
0.214844 0.00390625 0 0 0 0.208156
0.21875 0.00390625 0 0 0 0.212946
0.222656 0.00390625 0 0 0 0.217716
0.226563 0.00390625 0 0 0 0.222464
0.230469 0.00390625 0 0 0 0.22719
0.234375 0.00390625 0 0 0 0.231894
0.238281 0.00390625 0 0 0 0.236574
0.242188 0.00390625 0 0 0 0.241231
0.246094 0.00390625 0 0 0 0.245864
0.25 0.00390625 0 0 0 0.250472
0.253906 0.00390625 0 0 0 0.255055
0.257813 0.00390625 0 0 0 0.259611
0.261719 0.00390625 0 0 0 0.26414
0.265625 0.00390625 0 0 0 0.268642
0.269531 0.00390625 0 0 0 0.273115
0.273438 0.00390625 0 0 0 0.277559
0.277344 0.00390625 0 0 0 0.281974
0.28125 0.00390625 0 0 0 0.286357
0.285156 0.00390625 0 0 0 0.290709
0.289063 0.00390625 0 0 0 0.295028
0.292969 0.00390625 0 0 0 0.299314
0.296875 0.00390625 0 0 0 0.303565
0.300781 0.00390625 0 0 0 0.307781
0.304688 0.00390625 0 0 0 0.311961
0.308594 0.00390625 0 0 0 0.316103
0.3125 0.00390625 0 0 0 0.320208
0.316406 0.00390625 0 0 0 0.324273
0.320313 0.00390625 0 0 0 0.328297
0.324219 0.00390625 0 0 0 0.33228
0.328125 0.00390625 0 0 0 0.336221
0.332031 0.00390625 0 0 0 0.340118
0.335938 0.00390625 0 0 0 0.34397
0.339844 0.00390625 0 0 0 0.347777
0.34375 0.00390625 0 0 0 0.351536
0.347656 0.00390625 0 0 0 0.355247
0.351563 0.00390625 0 0 0 0.358908
0.355469 0.00390625 0 0 0 0.362518
0.359375 0.00390625 0 0 0 0.366077
0.363281 0.00390625 0 0 0 0.369582
0.367188 0.00390625 0 0 0 0.373033
0.371094 0.00390625 0 0 0 0.376428
0.375 0.00390625 0 0 0 0.379766
0.378906 0.00390625 0 0 0 0.383045
0.382813 0.00390625 0 0 0 0.386265
0.386719 0.00390625 0 0 0 0.389423
0.390625 0.00390625 0 0 0 0.39252
0.394531 0.00390625 0 0 0 0.395552
0.398438 0.00390625 0 0 0 0.398519
0.402344 0.00390625 0 0 0 0.40142
0.40625 0.00390625 0 0 0 0.404252
0.410156 0.00390625 0 0 0 0.407015
0.414063 0.00390625 0 0 0 0.409708
0.417969 0.00390625 0 0 0 0.412329
0.421875 0.00390625 0 0 0 0.414876
0.425781 0.00390625 0 0 0 0.417348
0.429688 0.00390625 0 0 0 0.419744
0.433594 0.00390625 0 0 0 0.422062
0.4375 0.00390625 0 0 0 0.424301
0.441406 0.00390625 0 0 0 0.426459
0.445313 0.00390625 0 0 0 0.428536
0.449219 0.00390625 0 0 0 0.43053
0.453125 0.00390625 0 0 0 0.432439
0.457031 0.00390625 0 0 0 0.434261
0.460938 0.00390625 0 0 0 0.435997
0.464844 0.00390625 0 0 0 0.437644
0.46875 0.00390625 0 0 0 0.439201
0.472656 0.00390625 0 0 0 0.440667
0.476563 0.00390625 0 0 0 0.442041
0.480469 0.00390625 0 0 0 0.44332
0.484375 0.00390625 0 0 0 0.444505
0.488281 0.00390625 0 0 0 0.445593
0.492188 0.00390625 0 0 0 0.446584
0.496094 0.00390625 0 0 0 0.447477
0.5 0.00390625 0 0 0 0.448269
0.503906 0.00390625 0 0 0 0.448961
0.507813 0.00390625 0 0 0 0.449552
0.511719 0.00390625 0 0 0 0.450039
0.515625 0.00390625 0 0 0 0.450422
0.519531 0.00390625 0 0 0 0.450701
0.523438 0.00390625 0 0 0 0.450873
0.527344 0.00390625 0 0 0 0.450939
0.53125 0.00390625 0 0 0 0.450898
0.535156 0.00390625 0 0 0 0.450749
0.539063 0.00390625 0 0 0 0.45049
0.542969 0.00390625 0 0 0 0.450122
0.546875 0.00390625 0 0 0 0.449643
0.550781 0.00390625 0 0 0 0.449054
0.554688 0.00390625 0 0 0 0.448353
0.558594 0.00390625 0 0 0 0.447541
0.5625 0.00390625 0 0 0 0.446616
0.566406 0.00390625 0 0 0 0.445579
0.570313 0.00390625 0 0 0 0.444428
0.574219 0.00390625 0 0 0 0.443165
0.578125 0.00390625 0 0 0 0.441788
0.582031 0.00390625 0 0 0 0.440298
0.585938 0.00390625 0 0 0 0.438694
0.589844 0.00390625 0 0 0 0.436977
0.59375 0.00390625 0 0 0 0.435147
0.597656 0.00390625 0 0 0 0.433204
0.601563 0.00390625 0 0 0 0.431147
0.605469 0.00390625 0 0 0 0.428979
0.609375 0.00390625 0 0 0 0.426698
0.613281 0.00390625 0 0 0 0.424305
0.617188 0.00390625 0 0 0 0.421801
0.621094 0.00390625 0 0 0 0.419186
0.625 0.00390625 0 0 0 0.416461
0.628906 0.00390625 0 0 0 0.413628
0.632813 0.00390625 0 0 0 0.410685
0.636719 0.00390625 0 0 0 0.407635
0.640625 0.00390625 0 0 0 0.404479
0.644531 0.00390625 0 0 0 0.401217
0.648438 0.00390625 0 0 0 0.39785
0.652344 0.00390625 0 0 0 0.39438
0.65625 0.00390625 0 0 0 0.390808
0.660156 0.00390625 0 0 0 0.387136
0.664063 0.00390625 0 0 0 0.383363
0.667969 0.00390625 0 0 0 0.379493
0.671875 0.00390625 0 0 0 0.375526
0.675781 0.00390625 0 0 0 0.371464
0.679688 0.00390625 0 0 0 0.367309
0.683594 0.00390625 0 0 0 0.363062
0.6875 0.00390625 0 0 0 0.358725
0.691406 0.00390625 0 0 0 0.3543
0.695313 0.00390625 0 0 0 0.349788
0.699219 0.00390625 0 0 0 0.345192
0.703125 0.00390625 0 0 0 0.340513
0.707031 0.00390625 0 0 0 0.335754
0.710938 0.00390625 0 0 0 0.330916
0.714844 0.00390625 0 0 0 0.326001
0.71875 0.00390625 0 0 0 0.321012
0.722656 0.00390625 0 0 0 0.315951
0.726563 0.00390625 0 0 0 0.310819
0.730469 0.00390625 0 0 0 0.30562
0.734375 0.00390625 0 0 0 0.300354
0.738281 0.00390625 0 0 0 0.295026
0.742188 0.00390625 0 0 0 0.289636
0.746094 0.00390625 0 0 0 0.284187
0.75 0.00390625 0 0 0 0.278682
0.753906 0.00390625 0 0 0 0.273123
0.757813 0.00390625 0 0 0 0.267512
0.761719 0.00390625 0 0 0 0.261851
0.765625 0.00390625 0 0 0 0.256144
0.769531 0.00390625 0 0 0 0.250393
0.773438 0.00390625 0 0 0 0.2446
0.777344 0.00390625 0 0 0 0.238768
0.78125 0.00390625 0 0 0 0.232899
0.785156 0.00390625 0 0 0 0.226996
0.789063 0.00390625 0 0 0 0.221061
0.792969 0.00390625 0 0 0 0.215098
0.796875 0.00390625 0 0 0 0.20911
0.800781 0.00390625 0 0 0 0.203098
0.804688 0.00390625 0 0 0 0.197065
0.808594 0.00390625 0 0 0 0.191016
0.8125 0.00390625 0 0 0 0.184952
0.816406 0.00390625 0 0 0 0.178878
0.820313 0.00390625 0 0 0 0.172796
0.824219 0.00390625 0 0 0 0.166709
0.828125 0.00390625 0 0 0 0.160621
0.832031 0.00390625 0 0 0 0.154537
0.835938 0.00390625 0 0 0 0.148459
0.839844 0.00390625 0 0 0 0.142392
0.84375 0.00390625 0 0 0 0.136339
0.847656 0.00390625 0 0 0 0.130307
0.851563 0.00390625 0 0 0 0.124298
0.855469 0.00390625 0 0 0 0.118319
0.859375 0.00390625 0 0 0 0.112375
0.863281 0.00390625 0 0 0 0.106471
0.867188 0.00390625 0 0 0 0.100613
0.871094 0.00390625 0 0 0 0.0948088
0.875 0.00390625 0 0 0 0.0890638
0.878906 0.00390625 0 0 0 0.083386
0.882813 0.00390625 0 0 0 0.077783
0.886719 0.00390625 0 0 0 0.0722633
0.890625 0.00390625 0 0 0 0.0668356
0.894531 0.00390625 0 0 0 0.0615095
0.898438 0.00390625 0 0 0 0.0562948
0.902344 0.00390625 0 0 0 0.0512023
0.90625 0.00390625 0 0 0 0.0462433
0.910156 0.00390625 0 0 0 0.0414297
0.914063 0.00390625 0 0 0 0.036774
0.917969 0.00390625 0 0 0 0.0322896
0.921875 0.00390625 0 0 0 0.0279902
0.925781 0.00390625 0 0 0 0.0238905
0.929688 0.00390625 0 0 0 0.0200056
0.933594 0.00390625 0 0 0 0.0163511
0.9375 0.00390625 0 0 0 0.012943
0.941406 0.00390625 0 0 0 0.00979778
0.945313 0.00390625 0 0 0 0.00693198
0.949219 0.00390625 0 0 0 0.00436204
0.953125 0.00390625 0 0 0 0.00210401
0.957031 0.00390625 0 0 0 0.000173103
0.960938 0.00390625 0 0 0 -0.00141691
0.964844 0.00390625 0 0 0 -0.0026545
0.96875 0.00390625 0 0 0 -0.00353156
0.972656 0.00390625 0 0 0 -0.00404504
0.976563 0.00390625 0 0 0 -0.00419938
0.980469 0.00390625 0 0 0 -0.0040101
0.984375 0.00390625 0 0 0 -0.00350935
0.988281 0.00390625 0 0 0 -0.00275446
0.992188 0.00390625 0 0 0 -0.00184117
0.996094 0.00390625 0 0 0 -0.000921957
1 0.00390625 0 0 0 -0.000221733
0 0.0078125 0 0 -0.000221733 0
0.00390625 0.0078125 0 0 0 -0.000301909
0.0078125 0.0078125 8.08447e-07 -8.0804e-07 2.30341e-09 -0.000223822
0.0117188 0.0078125 1.99791e-06 -9.30094e-07 6.3129e-09 -0.000146171
0.015625 0.0078125 2.72963e-06 -5.59392e-07 9.56994e-09 -2.73192e-06
0.0195313 0.0078125 2.49593e-06 7.47536e-08 1.06834e-08 0.000306585
0.0234375 0.0078125 1.02088e-06 8.26937e-07 8.98622e-09 0.000856082
0.0273438 0.0078125 -1.82246e-06 1.61579e-06 4.22327e-09 0.00168964
0.03125 0.0078125 -6.06907e-06 2.39729e-06 -3.63679e-09 0.00282785
0.0351563 0.0078125 -1.16984e-05 3.148e-06 -1.45053e-08 0.00427558
0.0390625 0.0078125 -1.86572e-05 3.85581e-06 -2.82303e-08 0.00602748
0.0429688 0.0078125 -2.68734e-05 4.51502e-06 -4.46287e-08 0.00807194
0.046875 0.0078125 -3.62653e-05 5.12356e-06 -6.3504e-08 0.0103935
0.0507813 0.0078125 -4.67469e-05 5.68156e-06 -8.46568e-08 0.0129748
0.0546875 0.0078125 -5.82317e-05 6.1904e-06 -1.07892e-07 0.0157972
0.0585938 0.0078125 -7.06345e-05 6.6522e-06 -1.3302e-07 0.0188421
0.0625 0.0078125 -8.38733e-05 7.0695e-06 -1.59863e-07 0.022091
0.0664063 0.0078125 -9.78698e-05 7.44504e-06 -1.88252e-07 0.0255259
0.0703125 0.0078125 -0.00011255 7.78164e-06 -2.18029e-07 0.0291297
0.0742188 0.0078125 -0.000127845 8.08211e-06 -2.49048e-07 0.0328861
0.078125 0.0078125 -0.00014369 8.34921e-06 -2.81173e-07 0.0367799
0.0820313 0.0078125 -0.000160025 8.58558e-06 -3.14279e-07 0.0407966
0.0859375 0.0078125 -0.000176794 8.79375e-06 -3.48251e-07 0.0449229
0.0898438 0.0078125 -0.000193948 8.97615e-06 -3.82984e-07 0.0491465
0.09375 0.0078125 -0.000211437 9.13503e-06 -4.18381e-07 0.0534559
0.0976563 0.0078125 -0.000229221 9.27252e-06 -4.54356e-07 0.0578407
0.101563 0.0078125 -0.000247259 9.39061e-06 -4.90828e-07 0.0622912
0.105469 0.0078125 -0.000265517 9.49116e-06 -5.27725e-07 0.0667986
0.109375 0.0078125 -0.000283961 9.57588e-06 -5.64983e-07 0.0713549
0.113281 0.0078125 -0.000302564 9.64636e-06 -6.02543e-07 0.0759529
0.117188 0.0078125 -0.000321298 9.70406e-06 -6.40353e-07 0.0805859
0.121094 0.0078125 -0.00034014 9.75033e-06 -6.78364e-07 0.085248
0.125 0.0078125 -0.000359068 9.78639e-06 -7.16535e-07 0.0899338
0.128906 0.0078125 -0.000378065 9.81336e-06 -7.54829e-07 0.0946385
0.132813 0.0078125 -0.000397112 9.83226e-06 -7.93211e-07 0.0993578
0.136719 0.0078125 -0.000416194 9.84402e-06 -8.31653e-07 0.104088
0.140625 0.0078125 -0.000435299 9.84945e-06 -8.70128e-07 0.108825
0.144531 0.0078125 -0.000454414 9.84932e-06 -9.08612e-07 0.113566
0.148438 0.0078125 -0.000473529 9.84427e-06 -9.47087e-07 0.118309
0.152344 0.0078125 -0.000492635 9.83491e-06 -9.85533e-07 0.123051
0.15625 0.0078125 -0.000511723 9.82176e-06 -1.02393e-06 0.12779
0.160156 0.0078125 -0.000530786 9.80528e-06 -1.06228e-06 0.132523
0.164063 0.0078125 -0.000549817 9.78587e-06 -1.10055e-06 0.13725
0.167969 0.0078125 -0.000568811 9.76389e-06 -1.13874e-06 0.141969
0.171875 0.0078125 -0.000587764 9.73963e-06 -1.17685e-06 0.146678
0.175781 0.0078125 -0.00060667 9.71335e-06 -1.21485e-06 0.151376
0.179688 0.0078125 -0.000625525 9.68528e-06 -1.25275e-06 0.156062
0.183594 0.0078125 -0.000644326 9.65559e-06 -1.29053e-06 0.160735
0.1875 0.0078125 -0.00066307 9.62445e-06 -1.3282e-06 0.165395
0.191406 0.0078125 -0.000681754 9.59196e-06 -1.36574e-06 0.17004
0.195313 0.0078125 -0.000700374 9.55824e-06 -1.40315e-06 0.17467
0.199219 0.0078125 -0.00071893 9.52335e-06 -1.44043e-06 0.179284
0.203125 0.0078125 -0.000737417 9.48735e-06 -1.47757e-06 0.183881
0.207031 0.0078125 -0.000755834 9.45029e-06 -1.51457e-06 0.188461
0.210938 0.0078125 -0.000774179 9.41218e-06 -1.55143e-06 0.193023
0.214844 0.0078125 -0.00079245 9.37304e-06 -1.58813e-06 0.197567
0.21875 0.0078125 -0.000810644 9.33287e-06 -1.62467e-06 0.202091
0.222656 0.0078125 -0.000828759 9.29165e-06 -1.66106e-06 0.206597
0.226563 0.0078125 -0.000846793 9.24938e-06 -1.69729e-06 0.211082
0.230469 0.0078125 -0.000864744 9.20603e-06 -1.73334e-06 0.215546
0.234375 0.0078125 -0.00088261 9.16157e-06 -1.76923e-06 0.21999
0.238281 0.0078125 -0.000900389 9.11597e-06 -1.80494e-06 0.224411
0.242188 0.0078125 -0.000918078 9.06918e-06 -1.84047e-06 0.228811
0.246094 0.0078125 -0.000935674 9.02118e-06 -1.87582e-06 0.233187
0.25 0.0078125 -0.000953176 8.97191e-06 -1.91098e-06 0.23754
0.253906 0.0078125 -0.000970581 8.92133e-06 -1.94594e-06 0.241868
0.257813 0.0078125 -0.000987886 8.8694e-06 -1.9807e-06 0.246172
0.261719 0.0078125 -0.00100509 8.81607e-06 -2.01526e-06 0.250449
0.265625 0.0078125 -0.00102219 8.76129e-06 -2.0496e-06 0.254701
0.269531 0.0078125 -0.00103917 8.70502e-06 -2.08373e-06 0.258926
0.273438 0.0078125 -0.00105605 8.6472e-06 -2.11764e-06 0.263123
0.277344 0.0078125 -0.00107282 8.58779e-06 -2.15132e-06 0.267291
0.28125 0.0078125 -0.00108946 8.52675e-06 -2.18476e-06 0.27143
0.285156 0.0078125 -0.00110599 8.46402e-06 -2.21796e-06 0.27554
0.289063 0.0078125 -0.00112239 8.39956e-06 -2.25091e-06 0.279618
0.292969 0.0078125 -0.00113867 8.33332e-06 -2.28361e-06 0.283664
0.296875 0.0078125 -0.00115481 8.26526e-06 -2.31605e-06 0.287678
0.300781 0.0078125 -0.00117082 8.19533e-06 -2.34821e-06 0.291659
0.304688 0.0078125 -0.00118669 8.12349e-06 -2.3801e-06 0.295605
0.308594 0.0078125 -0.00120242 8.04969e-06 -2.41171e-06 0.299516
0.3125 0.0078125 -0.00121801 7.97389e-06 -2.44302e-06 0.30339
0.316406 0.0078125 -0.00123344 7.89606e-06 -2.47404e-06 0.307227
0.320313 0.0078125 -0.00124872 7.81614e-06 -2.50474e-06 0.311027
0.324219 0.0078125 -0.00126385 7.7341e-06 -2.53513e-06 0.314786
0.328125 0.0078125 -0.00127881 7.64989e-06 -2.5652e-06 0.318506
0.332031 0.0078125 -0.00129361 7.56349e-06 -2.59493e-06 0.322184
0.335938 0.0078125 -0.00130823 7.47484e-06 -2.62432e-06 0.325821
0.339844 0.0078125 -0.00132269 7.38393e-06 -2.65336e-06 0.329413
0.34375 0.0078125 -0.00133696 7.2907e-06 -2.68204e-06 0.332962
0.347656 0.0078125 -0.00135105 7.19513e-06 -2.71035e-06 0.336464
0.351563 0.0078125 -0.00136495 7.09718e-06 -2.73828e-06 0.33992
0.355469 0.0078125 -0.00137866 6.99681e-06 -2.76583e-06 0.343328
0.359375 0.0078125 -0.00139217 6.89401e-06 -2.79298e-06 0.346688
0.363281 0.0078125 -0.00140548 6.78873e-06 -2.81972e-06 0.349997
0.367188 0.0078125 -0.00141859 6.68095e-06 -2.84605e-06 0.353254
0.371094 0.0078125 -0.00143148 6.57065e-06 -2.87195e-06 0.356459
0.375 0.0078125 -0.00144416 6.45779e-06 -2.89742e-06 0.359611
0.378906 0.0078125 -0.00145661 6.34235e-06 -2.92244e-06 0.362707
0.382813 0.0078125 -0.00146884 6.22431e-06 -2.947e-06 0.365748
0.386719 0.0078125 -0.00148084 6.10365e-06 -2.9711e-06 0.368731
0.390625 0.0078125 -0.0014926 5.98034e-06 -2.99472e-06 0.371655
0.394531 0.0078125 -0.00150411 5.85438e-06 -3.01786e-06 0.37452
0.398438 0.0078125 -0.00151539 5.72574e-06 -3.04049e-06 0.377323
0.402344 0.0078125 -0.0015264 5.59442e-06 -3.06262e-06 0.380064
0.40625 0.0078125 -0.00153717 5.46039e-06 -3.08423e-06 0.382741
0.410156 0.0078125 -0.00154767 5.32365e-06 -3.10532e-06 0.385353
0.414063 0.0078125 -0.0015579 5.1842e-06 -3.12586e-06 0.387899
0.417969 0.0078125 -0.00156786 5.04202e-06 -3.14585e-06 0.390378
0.421875 0.0078125 -0.00157754 4.89712e-06 -3.16528e-06 0.392787
0.425781 0.0078125 -0.00158694 4.74949e-06 -3.18414e-06 0.395127
0.429688 0.0078125 -0.00159605 4.59913e-06 -3.20242e-06 0.397395
0.433594 0.0078125 -0.00160487 4.44606e-06 -3.22011e-06 0.39959
0.4375 0.0078125 -0.00161339 4.29027e-06 -3.23719e-06 0.401712
0.441406 0.0078125 -0.0016216 4.13178e-06 -3.25366e-06 0.403758
0.445313 0.0078125 -0.00162951 3.9706e-06 -3.2695e-06 0.405728
0.449219 0.0078125 -0.0016371 3.80675e-06 -3.28471e-06 0.40762
0.453125 0.0078125 -0.00164437 3.64025e-06 -3.29928e-06 0.409433
0.457031 0.0078125 -0.00165131 3.47111e-06 -3.31318e-06 0.411165
0.460938 0.0078125 -0.00165793 3.29936e-06 -3.32643e-06 0.412817
0.464844 0.0078125 -0.00166421 3.12503e-06 -3.33899e-06 0.414385
0.46875 0.0078125 -0.00167015 2.94816e-06 -3.35087e-06 0.415869
0.472656 0.0078125 -0.00167575 2.76877e-06 -3.36206e-06 0.417269
0.476563 0.0078125 -0.001681 2.5869e-06 -3.37253e-06 0.418582
0.480469 0.0078125 -0.00168589 2.40261e-06 -3.3823e-06 0.419807
0.484375 0.0078125 -0.00169043 2.21592e-06 -3.39133e-06 0.420944
0.488281 0.0078125 -0.0016946 2.02689e-06 -3.39964e-06 0.421991
0.492188 0.0078125 -0.0016984 1.83558e-06 -3.4072e-06 0.422948
0.496094 0.0078125 -0.00170184 1.64203e-06 -3.414e-06 0.423812
0.5 0.0078125 -0.00170489 1.44631e-06 -3.42005e-06 0.424584
0.503906 0.0078125 -0.00170757 1.24848e-06 -3.42533e-06 0.425261
0.507813 0.0078125 -0.00170986 1.04861e-06 -3.42983e-06 0.425844
0.511719 0.0078125 -0.00171176 8.46762e-07 -3.43355e-06 0.426331
0.515625 0.0078125 -0.00171327 6.43016e-07 -3.43647e-06 0.426721
0.519531 0.0078125 -0.00171439 4.37448e-07 -3.4386e-06 0.427013
0.523438 0.0078125 -0.00171511 2.30139e-07 -3.43991e-06 0.427207
0.527344 0.0078125 -0.00171542 2.11736e-08 -3.44042e-06 0.427301
0.53125 0.0078125 -0.00171533 -1.89359e-07 -3.4401e-06 0.427295
0.535156 0.0078125 -0.00171483 -4.01369e-07 -3.43896e-06 0.427189
0.539063 0.0078125 -0.00171392 -6.14759e-07 -3.43699e-06 0.426981
0.542969 0.0078125 -0.00171259 -8.29431e-07 -3.43418e-06 0.426671
0.546875 0.0078125 -0.00171085 -1.04528e-06 -3.43053e-06 0.426258
0.550781 0.0078125 -0.00170869 -1.26221e-06 -3.42603e-06 0.425741
0.554688 0.0078125 -0.00170612 -1.48011e-06 -3.42068e-06 0.425121
0.558594 0.0078125 -0.00170311 -1.69886e-06 -3.41448e-06 0.424397
0.5625 0.0078125 -0.00169969 -1.91835e-06 -3.40743e-06 0.423568
0.566406 0.0078125 -0.00169584 -2.13846e-06 -3.39951e-06 0.422634
0.570313 0.0078125 -0.00169156 -2.35908e-06 -3.39073e-06 0.421595
0.574219 0.0078125 -0.00168686 -2.58008e-06 -3.38109e-06 0.42045
0.578125 0.0078125 -0.00168173 -2.80133e-06 -3.37059e-06 0.4192
0.582031 0.0078125 -0.00167617 -3.02272e-06 -3.35922e-06 0.417843
0.585938 0.0078125 -0.00167018 -3.2441e-06 -3.34698e-06 0.416382
0.589844 0.0078125 -0.00166377 -3.46535e-06 -3.33388e-06 0.414814
0.59375 0.0078125 -0.00165692 -3.68634e-06 -3.31992e-06 0.41314
0.597656 0.0078125 -0.00164965 -3.90693e-06 -3.30509e-06 0.411361
0.601563 0.0078125 -0.00164195 -4.12698e-06 -3.2894e-06 0.409476
0.605469 0.0078125 -0.00163383 -4.34636e-06 -3.27285e-06 0.407487
0.609375 0.0078125 -0.00162528 -4.56492e-06 -3.25545e-06 0.405392
0.613281 0.0078125 -0.00161631 -4.78254e-06 -3.23719e-06 0.403193
0.617188 0.0078125 -0.00160692 -4.99907e-06 -3.21809e-06 0.40089
0.621094 0.0078125 -0.00159712 -5.21436e-06 -3.19814e-06 0.398483
0.625 0.0078125 -0.00158689 -5.42829e-06 -3.17735e-06 0.395973
0.628906 0.0078125 -0.00157625 -5.64071e-06 -3.15573e-06 0.393361
0.632813 0.0078125 -0.00156521 -5.85149e-06 -3.13328e-06 0.390647
0.636719 0.0078125 -0.00155375 -6.06047e-06 -3.11001e-06 0.387833
0.640625 0.0078125 -0.00154189 -6.26754e-06 -3.08592e-06 0.384918
0.644531 0.0078125 -0.00152963 -6.47254e-06 -3.06104e-06 0.381905
0.648438 0.0078125 -0.00151698 -6.67535e-06 -3.03535e-06 0.378793
0.652344 0.0078125 -0.00150393 -6.87584e-06 -3.00888e-06 0.375584
0.65625 0.0078125 -0.0014905 -7.07386e-06 -2.98162e-06 0.372279
0.660156 0.0078125 -0.00147668 -7.26929e-06 -2.9536e-06 0.368879
0.664063 0.0078125 -0.00146249 -7.46202e-06 -2.92482e-06 0.365385
0.667969 0.0078125 -0.00144793 -7.6519e-06 -2.89529e-06 0.361799
0.671875 0.0078125 -0.001433 -7.83882e-06 -2.86502e-06 0.358121
0.675781 0.0078125 -0.0014177 -8.02267e-06 -2.83403e-06 0.354354
0.679688 0.0078125 -0.00140205 -8.20332e-06 -2.80233e-06 0.350499
0.683594 0.0078125 -0.00138606 -8.38067e-06 -2.76993e-06 0.346556
0.6875 0.0078125 -0.00136972 -8.55461e-06 -2.73684e-06 0.342529
0.691406 0.0078125 -0.00135304 -8.72504e-06 -2.70307e-06 0.338417
0.695313 0.0078125 -0.00133604 -8.89184e-06 -2.66865e-06 0.334224
0.699219 0.0078125 -0.00131871 -9.05494e-06 -2.63359e-06 0.329949
0.703125 0.0078125 -0.00130107 -9.21423e-06 -2.59789e-06 0.325597
0.707031 0.0078125 -0.00128312 -9.36963e-06 -2.56157e-06 0.321167
0.710938 0.0078125 -0.00126487 -9.52105e-06 -2.52466e-06 0.316662
0.714844 0.0078125 -0.00124633 -9.66842e-06 -2.48717e-06 0.312084
0.71875 0.0078125 -0.0012275 -9.81166e-06 -2.4491e-06 0.307434
0.722656 0.0078125 -0.00120839 -9.95069e-06 -2.41048e-06 0.302715
0.726563 0.0078125 -0.00118902 -1.00854e-05 -2.37133e-06 0.297928
0.730469 0.0078125 -0.00116939 -1.02159e-05 -2.33166e-06 0.293076
0.734375 0.0078125 -0.0011495 -1.03419e-05 -2.29149e-06 0.28816
0.738281 0.0078125 -0.00112937 -1.04635e-05 -2.25083e-06 0.283183
0.742188 0.0078125 -0.001109 -1.05805e-05 -2.20971e-06 0.278146
0.746094 0.0078125 -0.00108841 -1.0693e-05 -2.16814e-06 0.273052
0.75 0.0078125 -0.0010676 -1.08009e-05 -2.12614e-06 0.267903
0.753906 0.0078125 -0.00104657 -1.09041e-05 -2.08373e-06 0.262701
0.757813 0.0078125 -0.00102535 -1.10025e-05 -2.04092e-06 0.257448
0.761719 0.0078125 -0.00100394 -1.10962e-05 -1.99773e-06 0.252147
0.765625 0.0078125 -0.000982349 -1.11851e-05 -1.95419e-06 0.246799
0.769531 0.0078125 -0.000960583 -1.12691e-05 -1.91031e-06 0.241408
0.773438 0.0078125 -0.000938654 -1.13482e-05 -1.86611e-06 0.235975
0.777344 0.0078125 -0.000916572 -1.14222e-05 -1.82162e-06 0.230502
0.78125 0.0078125 -0.000894346 -1.14912e-05 -1.77684e-06 0.224993
0.785156 0.0078125 -0.000871986 -1.1555e-05 -1.7318e-06 0.219449
0.789063 0.0078125 -0.000849503 -1.16135e-05 -1.68653e-06 0.213873
0.792969 0.0078125 -0.000826906 -1.16668e-05 -1.64103e-06 0.208268
0.796875 0.0078125 -0.000804206 -1.17145e-05 -1.59534e-06 0.202636
0.800781 0.0078125 -0.000781414 -1.17567e-05 -1.54947e-06 0.19698
0.804688 0.0078125 -0.00075854 -1.17932e-05 -1.50345e-06 0.191302
0.808594 0.0078125 -0.000735596 -1.18238e-05 -1.45729e-06 0.185606
0.8125 0.0078125 -0.000712594 -1.18484e-05 -1.41103e-06 0.179894
0.816406 0.0078125 -0.000689546 -1.18667e-05 -1.36469e-06 0.174169
0.820313 0.0078125 -0.000666463 -1.18785e-05 -1.31828e-06 0.168435
0.824219 0.0078125 -0.000643359 -1.18835e-05 -1.27185e-06 0.162694
0.828125 0.0078125 -0.000620248 -1.18816e-05 -1.2254e-06 0.15695
0.832031 0.0078125 -0.000597143 -1.18722e-05 -1.17898e-06 0.151207
0.835938 0.0078125 -0.000574059 -1.18552e-05 -1.13261e-06 0.145468
0.839844 0.0078125 -0.000551012 -1.183e-05 -1.08632e-06 0.139738
0.84375 0.0078125 -0.000528018 -1.17963e-05 -1.04015e-06 0.134019
0.847656 0.0078125 -0.000505094 -1.17536e-05 -9.94121e-07 0.128317
0.851563 0.0078125 -0.000482259 -1.17013e-05 -9.48281e-07 0.122636