Title=" Lid Driven Flow"
VARIABLES="X","Y","U","V","psi","xi"
ZONE T= "BOX", I= 201, J=201, F=POINT
0 0 0 0 0.000648395 0
0.005 0 0 0 0 0
0.01 0 0 0 0 0
0.015 0 0 0 0 161.889
0.02 0 0 0 0 176.134
0.025 0 0 0 0 155.648
0.03 0 0 0 0 133.306
0.035 0 0 0 0 115.837
0.04 0 0 0 0 103.029
0.045 0 0 0 0 93.5314
0.05 0 0 0 0 86.2291
0.055 0 0 0 0 80.3873
0.06 0 0 0 0 75.5468
0.065 0 0 0 0 71.4192
0.07 0 0 0 0 67.8181
0.075 0 0 0 0 64.6188
0.08 0 0 0 0 61.735
0.085 0 0 0 0 59.1054
0.09 0 0 0 0 56.6852
0.095 0 0 0 0 54.4413
0.1 0 0 0 0 52.3485
0.105 0 0 0 0 50.3876
0.11 0 0 0 0 48.5432
0.115 0 0 0 0 46.8033
0.12 0 0 0 0 45.1581
0.125 0 0 0 0 43.5993
0.13 0 0 0 0 42.1201
0.135 0 0 0 0 40.7145
0.14 0 0 0 0 39.3773
0.145 0 0 0 0 38.104
0.15 0 0 0 0 36.8903
0.155 0 0 0 0 35.7324
0.16 0 0 0 0 34.6268
0.165 0 0 0 0 33.5704
0.17 0 0 0 0 32.56
0.175 0 0 0 0 31.5928
0.18 0 0 0 0 30.666
0.185 0 0 0 0 29.7772
0.19 0 0 0 0 28.9239
0.195 0 0 0 0 28.1037
0.2 0 0 0 0 27.3146
0.205 0 0 0 0 26.5544
0.21 0 0 0 0 25.8211
0.215 0 0 0 0 25.113
0.22 0 0 0 0 24.4281
0.225 0 0 0 0 23.765
0.23 0 0 0 0 23.1219
0.235 0 0 0 0 22.4974
0.24 0 0 0 0 21.8902
0.245 0 0 0 0 21.2988
0.25 0 0 0 0 20.7221
0.255 0 0 0 0 20.1589
0.26 0 0 0 0 19.6083
0.265 0 0 0 0 19.0691
0.27 0 0 0 0 18.5406
0.275 0 0 0 0 18.0218
0.28 0 0 0 0 17.5121
0.285 0 0 0 0 17.0107
0.29 0 0 0 0 16.5171
0.295 0 0 0 0 16.0308
0.3 0 0 0 0 15.5511
0.305 0 0 0 0 15.0779
0.31 0 0 0 0 14.6106
0.315 0 0 0 0 14.149
0.32 0 0 0 0 13.6929
0.325 0 0 0 0 13.2421
0.33 0 0 0 0 12.7965
0.335 0 0 0 0 12.356
0.34 0 0 0 0 11.9206
0.345 0 0 0 0 11.4903
0.35 0 0 0 0 11.0652
0.355 0 0 0 0 10.6453
0.36 0 0 0 0 10.2308
0.365 0 0 0 0 9.82191
0.37 0 0 0 0 9.41873
0.375 0 0 0 0 9.02151
0.38 0 0 0 0 8.63047
0.385 0 0 0 0 8.24587
0.39 0 0 0 0 7.86796
0.395 0 0 0 0 7.49703
0.4 0 0 0 0 7.13333
0.405 0 0 0 0 6.77716
0.41 0 0 0 0 6.42879
0.415 0 0 0 0 6.08849
0.42 0 0 0 0 5.75651
0.425 0 0 0 0 5.43311
0.43 0 0 0 0 5.11852
0.435 0 0 0 0 4.81296
0.44 0 0 0 0 4.51663
0.445 0 0 0 0 4.2297
0.45 0 0 0 0 3.95232
0.455 0 0 0 0 3.68462
0.46 0 0 0 0 3.42669
0.465 0 0 0 0 3.17861
0.47 0 0 0 0 2.94041
0.475 0 0 0 0 2.71211
0.48 0 0 0 0 2.4937
0.485 0 0 0 0 2.28512
0.49 0 0 0 0 2.08631
0.495 0 0 0 0 1.89717
0.5 0 0 0 0 1.71757
0.505 0 0 0 0 1.54736
0.51 0 0 0 0 1.38637
0.515 0 0 0 0 1.23441
0.52 0 0 0 0 1.09125
0.525 0 0 0 0 0.956676
0.53 0 0 0 0 0.830432
0.535 0 0 0 0 0.712258
0.54 0 0 0 0 0.601882
0.545 0 0 0 0 0.499023
0.55 0 0 0 0 0.40339
0.555 0 0 0 0 0.314688
0.56 0 0 0 0 0.232618
0.565 0 0 0 0 0.156878
0.57 0 0 0 0 0.0871657
0.575 0 0 0 0 0.0231803
0.58 0 0 0 0 -0.0353767
0.585 0 0 0 0 -0.0888005
0.59 0 0 0 0 -0.137381
0.595 0 0 0 0 -0.181403
0.6 0 0 0 0 -0.221143
0.605 0 0 0 0 -0.25687
0.61 0 0 0 0 -0.288847
0.615 0 0 0 0 -0.317325
0.62 0 0 0 0 -0.342546
0.625 0 0 0 0 -0.364742
0.63 0 0 0 0 -0.384136
0.635 0 0 0 0 -0.400939
0.64 0 0 0 0 -0.415349
0.645 0 0 0 0 -0.427556
0.65 0 0 0 0 -0.437738
0.655 0 0 0 0 -0.446061
0.66 0 0 0 0 -0.45268
0.665 0 0 0 0 -0.45774
0.67 0 0 0 0 -0.461376
0.675 0 0 0 0 -0.46371
0.68 0 0 0 0 -0.464858
0.685 0 0 0 0 -0.464923
0.69 0 0 0 0 -0.464002
0.695 0 0 0 0 -0.462183
0.7 0 0 0 0 -0.459546
0.705 0 0 0 0 -0.456163
0.71 0 0 0 0 -0.4521
0.715 0 0 0 0 -0.447419
0.72 0 0 0 0 -0.442175
0.725 0 0 0 0 -0.436417
0.73 0 0 0 0 -0.430192
0.735 0 0 0 0 -0.423542
0.74 0 0 0 0 -0.416507
0.745 0 0 0 0 -0.409122
0.75 0 0 0 0 -0.401421
0.755 0 0 0 0 -0.393434
0.76 0 0 0 0 -0.385193
0.765 0 0 0 0 -0.376723
0.77 0 0 0 0 -0.368052
0.775 0 0 0 0 -0.359203
0.78 0 0 0 0 -0.350199
0.785 0 0 0 0 -0.341063
0.79 0 0 0 0 -0.331815
0.795 0 0 0 0 -0.322474
0.8 0 0 0 0 -0.313059
0.805 0 0 0 0 -0.303586
0.81 0 0 0 0 -0.294071
0.815 0 0 0 0 -0.284528
0.82 0 0 0 0 -0.27497
0.825 0 0 0 0 -0.26541
0.83 0 0 0 0 -0.255858
0.835 0 0 0 0 -0.246323
0.84 0 0 0 0 -0.236812
0.845 0 0 0 0 -0.227334
0.85 0 0 0 0 -0.217894
0.855 0 0 0 0 -0.208495
0.86 0 0 0 0 -0.199144
0.865 0 0 0 0 -0.189841
0.87 0 0 0 0 -0.18059
0.875 0 0 0 0 -0.171392
0.88 0 0 0 0 -0.16225
0.885 0 0 0 0 -0.153165
0.89 0 0 0 0 -0.144139
0.895 0 0 0 0 -0.135175
0.9 0 0 0 0 -0.126276
0.905 0 0 0 0 -0.117449
0.91 0 0 0 0 -0.108698
0.915 0 0 0 0 -0.100035
0.92 0 0 0 0 -0.0914694
0.925 0 0 0 0 -0.0830175
0.93 0 0 0 0 -0.0746983
0.935 0 0 0 0 -0.0665354
0.94 0 0 0 0 -0.058558
0.945 0 0 0 0 -0.0508016
0.95 0 0 0 0 -0.0433088
0.955 0 0 0 0 -0.0361306
0.96 0 0 0 0 -0.0293271
0.965 0 0 0 0 -0.0229691
0.97 0 0 0 0 -0.0171388
0.975 0 0 0 0 -0.0119304
0.98 0 0 0 0 -0.00745008
0.985 0 0 0 0 -0.00381343
0.99 0 0 0 0 -0.00113706
0.995 0 0 0 0 0.000482459
1 0 0 0 0 0.00102072
0 0.005 0 0 0 0
0.005 0.005 0 0 0 0
0.01 0.005 0 0 0 73.7249
0.015 0.005 0 0 0 61.9831
0.02 0.005 0 0 0 45.5233
0.025 0.005 0 0 0 33.6914
0.03 0.005 0 0 0 25.8085
0.035 0.005 0 0 0 20.4702
0.04 0.005 0 0 0 16.7152
0.045 0.005 0 0 0 13.9691
0.05 0.005 0 0 0 11.8926
0.055 0.005 0 0 0 10.2793
0.06 0.005 0 0 0 8.9983
0.065 0.005 0 0 0 7.96326
0.07 0.005 0 0 0 7.11496
0.075 0.005 0 0 0 6.41145
0.08 0.005 0 0 0 5.8222
0.085 0.005 0 0 0 5.32447
0.09 0.005 0 0 0 4.901
0.095 0.005 0 0 0 4.53846
0.1 0.005 0 0 0 4.22641
0.105 0.005 0 0 0 3.95657
0.11 0.005 0 0 0 3.7223
0.115 0.005 0 0 0 3.51823
0.12 0.005 0 0 0 3.33996
0.125 0.005 0 0 0 3.18387
0.13 0.005 0 0 0 3.04696
0.135 0.005 0 0 0 2.92673
0.14 0.005 0 0 0 2.82105
0.145 0.005 0 0 0 2.72813
0.15 0.005 0 0 0 2.64647
0.155 0.005 0 0 0 2.57474
0.16 0.005 0 0 0 2.51184
0.165 0.005 0 0 0 2.45679
0.17 0.005 0 0 0 2.40875
0.175 0.005 0 0 0 2.36698
0.18 0.005 0 0 0 2.33084
0.185 0.005 0 0 0 2.29976
0.19 0.005 0 0 0 2.27323
0.195 0.005 0 0 0 2.25081
0.2 0.005 0 0 0 2.23211
0.205 0.005 0 0 0 2.21676
0.21 0.005 0 0 0 2.20444
0.215 0.005 0 0 0 2.19487
0.22 0.005 0 0 0 2.18778
0.225 0.005 0 0 0 2.18294
0.23 0.005 0 0 0 2.18011
0.235 0.005 0 0 0 2.17912
0.24 0.005 0 0 0 2.17976
0.245 0.005 0 0 0 2.18188
0.25 0.005 0 0 0 2.18531
0.255 0.005 0 0 0 2.1899
0.26 0.005 0 0 0 2.19553
0.265 0.005 0 0 0 2.20206
0.27 0.005 0 0 0 2.20937
0.275 0.005 0 0 0 2.21735
0.28 0.005 0 0 0 2.22589
0.285 0.005 0 0 0 2.23489
0.29 0.005 0 0 0 2.24426
0.295 0.005 0 0 0 2.25389
0.3 0.005 0 0 0 2.26372
0.305 0.005 0 0 0 2.27365
0.31 0.005 0 0 0 2.2836
0.315 0.005 0 0 0 2.2935
0.32 0.005 0 0 0 2.30328
0.325 0.005 0 0 0 2.31286
0.33 0.005 0 0 0 2.32219
0.335 0.005 0 0 0 2.33119
0.34 0.005 0 0 0 2.33982
0.345 0.005 0 0 0 2.348
0.35 0.005 0 0 0 2.3557
0.355 0.005 0 0 0 2.36285
0.36 0.005 0 0 0 2.3694
0.365 0.005 0 0 0 2.37531
0.37 0.005 0 0 0 2.38054
0.375 0.005 0 0 0 2.38505
0.38 0.005 0 0 0 2.38879
0.385 0.005 0 0 0 2.39173
0.39 0.005 0 0 0 2.39383
0.395 0.005 0 0 0 2.39507
0.4 0.005 0 0 0 2.39542
0.405 0.005 0 0 0 2.39485
0.41 0.005 0 0 0 2.39334
0.415 0.005 0 0 0 2.39087
0.42 0.005 0 0 0 2.38742
0.425 0.005 0 0 0 2.38298
0.43 0.005 0 0 0 2.37753
0.435 0.005 0 0 0 2.37107
0.44 0.005 0 0 0 2.36358
0.445 0.005 0 0 0 2.35507
0.45 0.005 0 0 0 2.34553
0.455 0.005 0 0 0 2.33496
0.46 0.005 0 0 0 2.32337
0.465 0.005 0 0 0 2.31075
0.47 0.005 0 0 0 2.29713
0.475 0.005 0 0 0 2.2825
0.48 0.005 0 0 0 2.26687
0.485 0.005 0 0 0 2.25028
0.49 0.005 0 0 0 2.23272
0.495 0.005 0 0 0 2.21422
0.5 0.005 0 0 0 2.19479
0.505 0.005 0 0 0 2.17446
0.51 0.005 0 0 0 2.15326
0.515 0.005 0 0 0 2.1312
0.52 0.005 0 0 0 2.10832
0.525 0.005 0 0 0 2.08463
0.53 0.005 0 0 0 2.06018
0.535 0.005 0 0 0 2.03498
0.54 0.005 0 0 0 2.00907
0.545 0.005 0 0 0 1.98248
0.55 0.005 0 0 0 1.95525
0.555 0.005 0 0 0 1.9274
0.56 0.005 0 0 0 1.89897
0.565 0.005 0 0 0 1.87
0.57 0.005 0 0 0 1.84051
0.575 0.005 0 0 0 1.81055
0.58 0.005 0 0 0 1.78015
0.585 0.005 0 0 0 1.74933
0.59 0.005 0 0 0 1.71815
0.595 0.005 0 0 0 1.68662
0.6 0.005 0 0 0 1.65479
0.605 0.005 0 0 0 1.62269
0.61 0.005 0 0 0 1.59036
0.615 0.005 0 0 0 1.55782
0.62 0.005 0 0 0 1.5251
0.625 0.005 0 0 0 1.49225
0.63 0.005 0 0 0 1.45929
0.635 0.005 0 0 0 1.42625
0.64 0.005 0 0 0 1.39317
0.645 0.005 0 0 0 1.36006
0.65 0.005 0 0 0 1.32696
0.655 0.005 0 0 0 1.2939
0.66 0.005 0 0 0 1.26091
0.665 0.005 0 0 0 1.228
0.67 0.005 0 0 0 1.1952
0.675 0.005 0 0 0 1.16254
0.68 0.005 0 0 0 1.13004
0.685 0.005 0 0 0 1.09773
0.69 0.005 0 0 0 1.06561
0.695 0.005 0 0 0 1.03372
0.7 0.005 0 0 0 1.00208
0.705 0.005 0 0 0 0.970691
0.71 0.005 0 0 0 0.939585
0.715 0.005 0 0 0 0.908776
0.72 0.005 0 0 0 0.87828
0.725 0.005 0 0 0 0.848112
0.73 0.005 0 0 0 0.818287
0.735 0.005 0 0 0 0.788819
0.74 0.005 0 0 0 0.759722
0.745 0.005 0 0 0 0.731009
0.75 0.005 0 0 0 0.702692
0.755 0.005 0 0 0 0.674782
0.76 0.005 0 0 0 0.647292
0.765 0.005 0 0 0 0.620231
0.77 0.005 0 0 0 0.593611
0.775 0.005 0 0 0 0.567442
0.78 0.005 0 0 0 0.541732
0.785 0.005 0 0 0 0.516493
0.79 0.005 0 0 0 0.491732
0.795 0.005 0 0 0 0.467458
0.8 0.005 0 0 0 0.443682
0.805 0.005 0 0 0 0.42041
0.81 0.005 0 0 0 0.397651
0.815 0.005 0 0 0 0.375415
0.82 0.005 0 0 0 0.353708
0.825 0.005 0 0 0 0.33254
0.83 0.005 0 0 0 0.311918
0.835 0.005 0 0 0 0.291851
0.84 0.005 0 0 0 0.272347
0.845 0.005 0 0 0 0.253414
0.85 0.005 0 0 0 0.235061
0.855 0.005 0 0 0 0.217297
0.86 0.005 0 0 0 0.20013
0.865 0.005 0 0 0 0.18357
0.87 0.005 0 0 0 0.167625
0.875 0.005 0 0 0 0.152305
0.88 0.005 0 0 0 0.13762
0.885 0.005 0 0 0 0.123579
0.89 0.005 0 0 0 0.110194
0.895 0.005 0 0 0 0.0974752
0.9 0.005 0 0 0 0.0854334
0.905 0.005 0 0 0 0.0740803
0.91 0.005 0 0 0 0.063428
0.915 0.005 0 0 0 0.0534889
0.92 0.005 0 0 0 0.0442758
0.925 0.005 0 0 0 0.0358019
0.93 0.005 0 0 0 0.0280807
0.935 0.005 0 0 0 0.0211258
0.94 0.005 0 0 0 0.0149504
0.945 0.005 0 0 0 0.0095676
0.95 0.005 0 0 0 0.00498888
0.955 0.005 0 0 0 0.00122373
0.96 0.005 0 0 0 -0.00172206
0.965 0.005 0 0 0 -0.00384877
0.97 0.005 0 0 0 -0.00516639
0.975 0.005 0 0 0 -0.00570059
0.98 0.005 0 0 0 -0.00550233
0.985 0.005 0 0 0 -0.00466403
0.99 0.005 0 0 0 -0.00334608
0.995 0.005 0 0 0 -0.00181862
1 0.005 0 0 0 -0.000511828
0 0.01 0 0 -0.000511828 0
0.005 0.01 0 0 0 -326.275
0.01 0.01 -0.179953 0.0774789 -0.000921561 -44.4771
0.015 0.01 -0.184476 -0.035252 -0.000774789 9.44832
0.02 0.01 -0.155675 -0.0353647 -0.000569041 19.0609
0.025 0.01 -0.126705 -0.0246435 -0.000421142 18.9651
0.03 0.01 -0.103447 -0.0165264 -0.000322606 16.8427
0.035 0.01 -0.085641 -0.0113666 -0.000255878 14.5777
0.04 0.01 -0.0720281 -0.0081264 -0.00020894 12.6005
0.045 0.01 -0.0614854 -0.0060282 -0.000174614 10.9598
0.05 0.01 -0.0531852 -0.00461228 -0.000148658 9.61301
0.055 0.01 -0.0465447 -0.00361792 -0.000128491 8.50476
0.06 0.01 -0.0411549 -0.00289503 -0.000112479 7.58664
0.065 0.01 -0.0367249 -0.00235416 -9.95407e-05 6.82007
0.07 0.01 -0.0330442 -0.00193975 -8.89369e-05 6.17513
0.075 0.01 -0.0299574 -0.00161594 -8.0143e-05 5.62864
0.08 0.01 -0.0273476 -0.00135871 -7.27774e-05 5.16261
0.085 0.01 -0.0251256 -0.00115149 -6.65558e-05 4.76292
0.09 0.01 -0.0232222 -0.000982501 -6.12624e-05 4.41837
0.095 0.01 -0.0215831 -0.000843227 -5.67306e-05 4.12002
0.1 0.01 -0.0201649 -0.000727351 -5.283e-05 3.86066
0.105 0.01 -0.0189329 -0.000630122 -4.94569e-05 3.6344
0.11 0.01 -0.0178591 -0.000547912 -4.65286e-05 3.43645
0.115 0.01 -0.0169203 -0.000477913 -4.39777e-05 3.26281
0.12 0.01 -0.0160976 -0.00041793 -4.17493e-05 3.11018
0.125 0.01 -0.0153752 -0.000366225 -3.97982e-05 2.97581
0.13 0.01 -0.0147399 -0.000321414 -3.80869e-05 2.85734
0.135 0.01 -0.0141807 -0.000282383 -3.65839e-05 2.75282
0.14 0.01 -0.0136881 -0.000248227 -3.52629e-05 2.66057
0.145 0.01 -0.0132541 -0.00021821 -3.41015e-05 2.57914
0.15 0.01 -0.012872 -0.000191724 -3.30807e-05 2.50731
0.155 0.01 -0.0125358 -0.00016827 -3.21842e-05 2.444
0.16 0.01 -0.0122405 -0.000147429 -3.13979e-05 2.3883
0.165 0.01 -0.0119817 -0.000128855 -3.07098e-05 2.33939
0.17 0.01 -0.0117554 -0.000112253 -3.01093e-05 2.29656
0.175 0.01 -0.0115584 -9.73785e-05 -2.95872e-05 2.25921
0.18 0.01 -0.0113877 -8.40208e-05 -2.91354e-05 2.22677
0.185 0.01 -0.0112406 -7.20021e-05 -2.87469e-05 2.19877
0.19 0.01 -0.0111148 -6.117e-05 -2.84153e-05 2.17476
0.195 0.01 -0.0110083 -5.13941e-05 -2.81351e-05 2.15438
0.2 0.01 -0.0109192 -4.25621e-05 -2.79013e-05 2.13726
0.205 0.01 -0.0108459 -3.4577e-05 -2.77094e-05 2.1231
0.21 0.01 -0.0107867 -2.73549e-05 -2.75555e-05 2.11162
0.215 0.01 -0.0107405 -2.08228e-05 -2.74359e-05 2.10256
0.22 0.01 -0.0107059 -1.49172e-05 -2.73473e-05 2.09569
0.225 0.01 -0.0106818 -9.58278e-06 -2.72867e-05 2.0908
0.23 0.01 -0.0106672 -4.77093e-06 -2.72514e-05 2.0877
0.235 0.01 -0.0106612 -4.39075e-07 -2.7239e-05 2.0862
0.24 0.01 -0.0106629 3.45027e-06 -2.7247e-05 2.08614
0.245 0.01 -0.0106715 6.93018e-06 -2.72735e-05 2.08737
0.25 0.01 -0.0106862 1.00299e-05 -2.73164e-05 2.08975
0.255 0.01 -0.0107063 1.27754e-05 -2.73738e-05 2.09314
0.26 0.01 -0.0107313 1.51898e-05 -2.74442e-05 2.09742
0.265 0.01 -0.0107604 1.72938e-05 -2.75258e-05 2.10249
0.27 0.01 -0.0107931 1.91058e-05 -2.76172e-05 2.10822
0.275 0.01 -0.010829 2.06425e-05 -2.77169e-05 2.11451
0.28 0.01 -0.0108674 2.19189e-05 -2.78237e-05 2.12128
0.285 0.01 -0.0109078 2.29487e-05 -2.79362e-05 2.12842
0.29 0.01 -0.01095 2.37443e-05 -2.80533e-05 2.13586
0.295 0.01 -0.0109933 2.43173e-05 -2.81738e-05 2.14351
0.3 0.01 -0.0110374 2.46781e-05 -2.82966e-05 2.15128
0.305 0.01 -0.0110819 2.48366e-05 -2.84207e-05 2.15912
0.31 0.01 -0.0111264 2.48019e-05 -2.85451e-05 2.16694
0.315 0.01 -0.0111706 2.45827e-05 -2.86689e-05 2.17469
0.32 0.01 -0.0112142 2.41873e-05 -2.87911e-05 2.18229
0.325 0.01 -0.0112567 2.36233e-05 -2.89109e-05 2.18968
0.33 0.01 -0.0112979 2.28983e-05 -2.90275e-05 2.19681
0.335 0.01 -0.0113375 2.20196e-05 -2.91401e-05 2.20362
0.34 0.01 -0.0113753 2.09942e-05 -2.92479e-05 2.21006
0.345 0.01 -0.0114108 1.98291e-05 -2.93503e-05 2.21608
0.35 0.01 -0.011444 1.8531e-05 -2.94464e-05 2.22162
0.355 0.01 -0.0114745 1.71067e-05 -2.95358e-05 2.22666
0.36 0.01 -0.0115022 1.55627e-05 -2.96177e-05 2.23114
0.365 0.01 -0.0115267 1.39057e-05 -2.96917e-05 2.23502
0.37 0.01 -0.011548 1.21423e-05 -2.97571e-05 2.23827
0.375 0.01 -0.0115657 1.02791e-05 -2.98134e-05 2.24085
0.38 0.01 -0.0115798 8.32258e-06 -2.98601e-05 2.24273
0.385 0.01 -0.0115901 6.27936e-06 -2.98969e-05 2.24388
0.39 0.01 -0.0115964 4.15605e-06 -2.99232e-05 2.24427
0.395 0.01 -0.0115985 1.95924e-06 -2.99387e-05 2.24387
0.4 0.01 -0.0115964 -3.04441e-07 -2.99431e-05 2.24267
0.405 0.01 -0.01159 -2.62838e-06 -2.9936e-05 2.24064
0.41 0.01 -0.011579 -5.00595e-06 -2.99171e-05 2.23777
0.415 0.01 -0.0115635 -7.43054e-06 -2.98862e-05 2.23403
0.42 0.01 -0.0115434 -9.89557e-06 -2.98431e-05 2.22942
0.425 0.01 -0.0115186 -1.23945e-05 -2.97876e-05 2.22393
0.43 0.01 -0.011489 -1.49207e-05 -2.97195e-05 2.21754
0.435 0.01 -0.0114546 -1.74678e-05 -2.96387e-05 2.21025
0.44 0.01 -0.0114154 -2.00293e-05 -2.95451e-05 2.20205
0.445 0.01 -0.0113714 -2.2599e-05 -2.94387e-05 2.19295
0.45 0.01 -0.0113225 -2.51707e-05 -2.93195e-05 2.18293
0.455 0.01 -0.0112688 -2.77381e-05 -2.91874e-05 2.17202
0.46 0.01 -0.0112102 -3.02954e-05 -2.90424e-05 2.1602
0.465 0.01 -0.0111469 -3.28366e-05 -2.88848e-05 2.14749
0.47 0.01 -0.0110788 -3.53561e-05 -2.87144e-05 2.13389
0.475 0.01 -0.011006 -3.78485e-05 -2.85315e-05 2.11941
0.48 0.01 -0.0109286 -4.03082e-05 -2.83363e-05 2.10407
0.485 0.01 -0.0108466 -4.27303e-05 -2.81288e-05 2.08788
0.49 0.01 -0.0107601 -4.51098e-05 -2.79093e-05 2.07085
0.495 0.01 -0.0106693 -4.74419e-05 -2.7678e-05 2.05301
0.5 0.01 -0.010574 -4.97224e-05 -2.74352e-05 2.03436
0.505 0.01 -0.0104746 -5.19468e-05 -2.71811e-05 2.01494
0.51 0.01 -0.0103711 -5.41114e-05 -2.69161e-05 1.99475
0.515 0.01 -0.0102636 -5.62123e-05 -2.66404e-05 1.97383
0.52 0.01 -0.0101523 -5.82461e-05 -2.63543e-05 1.95219
0.525 0.01 -0.0100373 -6.02097e-05 -2.60582e-05 1.92987
0.53 0.01 -0.00991861 -6.21002e-05 -2.57525e-05 1.90688
0.535 0.01 -0.00979651 -6.3915e-05 -2.54375e-05 1.88326
0.54 0.01 -0.00967112 -6.56518e-05 -2.51137e-05 1.85902
0.545 0.01 -0.00954257 -6.73085e-05 -2.47813e-05 1.83421
0.55 0.01 -0.00941102 -6.88834e-05 -2.44409e-05 1.80884
0.555 0.01 -0.00927663 -7.03749e-05 -2.40928e-05 1.78295
0.56 0.01 -0.00913955 -7.1782e-05 -2.37375e-05 1.75656
0.565 0.01 -0.00899995 -7.31036e-05 -2.33753e-05 1.72971
0.57 0.01 -0.00885797 -7.4339e-05 -2.30067e-05 1.70242
0.575 0.01 -0.00871379 -7.54879e-05 -2.26322e-05 1.67473
0.58 0.01 -0.00856757 -7.65501e-05 -2.22521e-05 1.64667
0.585 0.01 -0.00841947 -7.75256e-05 -2.18669e-05 1.61825
0.59 0.01 -0.00826964 -7.84147e-05 -2.14771e-05 1.58953
0.595 0.01 -0.00811826 -7.9218e-05 -2.1083e-05 1.56052
0.6 0.01 -0.00796548 -7.99362e-05 -2.06852e-05 1.53125
0.605 0.01 -0.00781146 -8.05701e-05 -2.02839e-05 1.50176
0.61 0.01 -0.00765635 -8.11209e-05 -1.98797e-05 1.47207
0.615 0.01 -0.00750031 -8.15898e-05 -1.94729e-05 1.44221
0.62 0.01 -0.00734349 -8.19783e-05 -1.9064e-05 1.41221
0.625 0.01 -0.00718604 -8.22879e-05 -1.86534e-05 1.3821
0.63 0.01 -0.00702811 -8.25204e-05 -1.82414e-05 1.3519
0.635 0.01 -0.00686983 -8.26774e-05 -1.78284e-05 1.32164
0.64 0.01 -0.00671134 -8.27609e-05 -1.74148e-05 1.29135
0.645 0.01 -0.00655278 -8.27729e-05 -1.70009e-05 1.26105
0.65 0.01 -0.00639429 -8.27155e-05 -1.65872e-05 1.23076
0.655 0.01 -0.00623599 -8.25908e-05 -1.6174e-05 1.20051
0.66 0.01 -0.00607799 -8.24009e-05 -1.57615e-05 1.17033
0.665 0.01 -0.00592043 -8.21481e-05 -1.53501e-05 1.14023
0.67 0.01 -0.00576342 -8.18345e-05 -1.49402e-05 1.11023
0.675 0.01 -0.00560706 -8.14624e-05 -1.45319e-05 1.08036
0.68 0.01 -0.00545147 -8.10341e-05 -1.41257e-05 1.05063
0.685 0.01 -0.00529675 -8.05517e-05 -1.37217e-05 1.02107
0.69 0.01 -0.00514299 -8.00174e-05 -1.33203e-05 0.991692
0.695 0.01 -0.0049903 -7.94334e-05 -1.29217e-05 0.962515
0.7 0.01 -0.00483877 -7.88018e-05 -1.25261e-05 0.933557
0.705 0.01 -0.00468847 -7.81246e-05 -1.21337e-05 0.904833
0.71 0.01 -0.0045395 -7.7404e-05 -1.17449e-05 0.876359
0.715 0.01 -0.00439193 -7.66418e-05 -1.13598e-05 0.84815
0.72 0.01 -0.00424585 -7.58398e-05 -1.09786e-05 0.820221
0.725 0.01 -0.00410132 -7.5e-05 -1.06015e-05 0.792584
0.73 0.01 -0.00395841 -7.4124e-05 -1.02287e-05 0.765254
0.735 0.01 -0.0038172 -7.32135e-05 -9.86031e-06 0.738242
0.74 0.01 -0.00367774 -7.227e-05 -9.49659e-06 0.711561
0.745 0.01 -0.00354009 -7.12949e-05 -9.13767e-06 0.685223
0.75 0.01 -0.00340432 -7.02897e-05 -8.7837e-06 0.659238
0.755 0.01 -0.00327048 -6.92556e-05 -8.43483e-06 0.633617
0.76 0.01 -0.00313862 -6.81938e-05 -8.0912e-06 0.608371
0.765 0.01 -0.0030088 -6.71054e-05 -7.75294e-06 0.583509
0.77 0.01 -0.00288107 -6.59914e-05 -7.42018e-06 0.55904
0.775 0.01 -0.00275547 -6.48526e-05 -7.09306e-06 0.534975
0.78 0.01 -0.00263205 -6.36899e-05 -6.77169e-06 0.511322
0.785 0.01 -0.00251086 -6.25041e-05 -6.45619e-06 0.48809
0.79 0.01 -0.00239194 -6.12956e-05 -6.14667e-06 0.465287
0.795 0.01 -0.00227533 -6.00651e-05 -5.84325e-06 0.442922
0.8 0.01 -0.00216108 -5.8813e-05 -5.54604e-06 0.421003
0.805 0.01 -0.00204923 -5.75397e-05 -5.25514e-06 0.399537
0.81 0.01 -0.00193981 -5.62455e-05 -4.97066e-06 0.378534
0.815 0.01 -0.00183288 -5.49305e-05 -4.6927e-06 0.358
0.82 0.01 -0.00172846 -5.35949e-05 -4.42136e-06 0.337944
0.825 0.01 -0.0016266 -5.22387e-05 -4.15675e-06 0.318374
0.83 0.01 -0.00152734 -5.0862e-05 -3.89898e-06 0.299297
0.835 0.01 -0.00143073 -4.94645e-05 -3.64814e-06 0.280722
0.84 0.01 -0.00133679 -4.80463e-05 -3.40433e-06 0.262656
0.845 0.01 -0.00124558 -4.66069e-05 -3.16767e-06 0.245107
0.85 0.01 -0.00115713 -4.51462e-05 -2.93826e-06 0.228084
0.855 0.01 -0.00107148 -4.36636e-05 -2.71621e-06 0.211594
0.86 0.01 -0.000988684 -4.21589e-05 -2.50162e-06 0.195647
0.865 0.01 -0.00090878 -4.06314e-05 -2.29461e-06 0.180251
0.87 0.01 -0.000831813 -3.90805e-05 -2.0953e-06 0.165414
0.875 0.01 -0.000757829 -3.75057e-05 -1.9038e-06 0.151145
0.88 0.01 -0.000686876 -3.59061e-05 -1.72024e-06 0.137454
0.885 0.01 -0.000619001 -3.42809e-05 -1.54473e-06 0.124349
0.89 0.01 -0.000554255 -3.26293e-05 -1.37742e-06 0.111841
0.895 0.01 -0.00049269 -3.09502e-05 -1.21843e-06 0.0999397
0.9 0.01 -0.000434357 -2.92428e-05 -1.06791e-06 0.0886541
0.905 0.01 -0.000379311 -2.75059e-05 -9.25996e-07 0.0779948
0.91 0.01 -0.000327608 -2.57385e-05 -7.92842e-07 0.0679721
0.915 0.01 -0.000279304 -2.39395e-05 -6.68604e-07 0.0585963
0.92 0.01 -0.000234459 -2.21079e-05 -5.5344e-07 0.0498779
0.925 0.01 -0.000193131 -2.02431e-05 -4.47517e-07 0.041827
0.93 0.01 -0.000155377 -1.83445e-05 -3.51003e-07 0.0344535
0.935 0.01 -0.000121256 -1.64122e-05 -2.64066e-07 0.0277666
0.94 0.01 -9.08211e-05 -1.44471e-05 -1.86875e-07 0.0217745
0.945 0.01 -6.41223e-05 -1.24514e-05 -1.1959e-07 0.0164836
0.95 0.01 -4.11996e-05 -1.04293e-05 -6.23566e-08 0.0118979
0.955 0.01 -2.20792e-05 -8.38823e-06 -1.52929e-08 0.00801779
0.96 0.01 -6.76583e-06 -6.34026e-06 2.15288e-08 0.00483806
0.965 0.01 4.76902e-06 -4.30511e-06 4.81121e-08 0.00234579
0.97 0.01 1.26036e-05 -2.31453e-06 6.45818e-08 0.000516724
0.975 0.01 1.68913e-05 -4.19739e-07 7.12586e-08 -0.000689684
0.98 0.01 1.78984e-05 1.29583e-06 6.878e-08 -0.00133701
0.985 0.01 1.60608e-05 2.69539e-06 5.83007e-08 -0.0015205
0.99 0.01 1.20657e-05 3.5568e-06 4.18262e-08 -0.00137546
0.995 0.01 6.96111e-06 3.54283e-06 2.27327e-08 -0.00107619
1 0.01 2.26938e-06 2.27327e-06 6.3978e-09 -0.000793417
0 0.015 0 0 -0.0018155 0
0.005 0.015 0 0 0 -256.038
0.01 0.015 -0.152632 0.184476 -0.00179953 -79.3561
0.015 0.015 -0.205642 -0.0242773 -0.00184476 -16.6706
0.02 0.015 -0.203698 -0.0577713 -0.00155675 2.39417
0.025 0.015 -0.183693 -0.0522285 -0.00126705 8.08963
0.03 0.015 -0.160588 -0.0410639 -0.00103447 9.46706
0.035 0.015 -0.139354 -0.0314188 -0.00085641 9.37617
0.04 0.015 -0.121195 -0.0241556 -0.000720281 8.79878
0.045 0.015 -0.106041 -0.0188429 -0.000614854 8.09434
0.05 0.015 -0.0934708 -0.0149407 -0.000531852 7.39672
0.055 0.015 -0.0830237 -0.0120303 -0.000465447 6.75331
0.06 0.015 -0.0742974 -0.00981975 -0.000411548 6.17732
0.065 0.015 -0.0669635 -0.00811062 -0.000367249 5.66848
0.07 0.015 -0.0607608 -0.00676749 -0.000330442 5.22148
0.075 0.015 -0.055483 -0.00569657 -0.000299573 4.82959
0.08 0.015 -0.0509668 -0.00483171 -0.000273476 4.486
0.085 0.015 -0.0470826 -0.00412532 -0.000251256 4.18449
0.09 0.015 -0.0437264 -0.00354251 -0.000232222 3.9195
0.095 0.015 -0.0408145 -0.00305732 -0.00021583 3.68624
0.1 0.015 -0.0382788 -0.00265008 -0.000201648 3.48056
0.105 0.015 -0.0360635 -0.00230573 -0.000189329 3.29892
0.11 0.015 -0.0341229 -0.00201257 -0.00017859 3.13827
0.115 0.015 -0.0324189 -0.00176144 -0.000169203 2.99602
0.12 0.015 -0.0309197 -0.00154506 -0.000160975 2.86992
0.125 0.015 -0.0295987 -0.00135764 -0.000153751 2.75807
0.13 0.015 -0.0284333 -0.00119448 -0.000147399 2.65881
0.135 0.015 -0.0274045 -0.0010518 -0.000141806 2.5707
0.14 0.015 -0.026496 -0.000926498 -0.00013688 2.49251
0.145 0.015 -0.0256938 -0.000816015 -0.000132541 2.42315
0.15 0.015 -0.024986 -0.000718244 -0.000128719 2.36169
0.155 0.015 -0.0243621 -0.000631433 -0.000125358 2.30729
0.16 0.015 -0.023813 -0.000554113 -0.000122405 2.25924
0.165 0.015 -0.0233309 -0.000485052 -0.000119816 2.2169
0.17 0.015 -0.0229089 -0.00042321 -0.000117554 2.17969
0.175 0.015 -0.0225408 -0.000367705 -0.000115584 2.14712
0.18 0.015 -0.0222214 -0.000317788 -0.000113877 2.11873
0.185 0.015 -0.0219458 -0.000272817 -0.000112406 2.09413
0.19 0.015 -0.0217097 -0.000232243 -0.000111148 2.07297
0.195 0.015 -0.0215094 -0.000195592 -0.000110083 2.0549
0.2 0.015 -0.0213415 -0.000162457 -0.000109192 2.03966
0.205 0.015 -0.0212029 -0.000132483 -0.000108458 2.02696
0.21 0.015 -0.0210909 -0.000105365 -0.000107867 2.01658
0.215 0.015 -0.0210028 -8.08346e-05 -0.000107405 2.00828
0.22 0.015 -0.0209365 -5.86584e-05 -0.000107059 2.00188
0.225 0.015 -0.0208897 -3.86321e-05 -0.000106818 1.99718
0.23 0.015 -0.0208607 -2.05763e-05 -0.000106672 1.99403
0.235 0.015 -0.0208476 -4.33321e-06 -0.000106612 1.99225
0.24 0.015 -0.0208488 1.02366e-05 -0.000106629 1.99171
0.245 0.015 -0.0208628 2.32562e-05 -0.000106715 1.99228
0.25 0.015 -0.0208882 3.48352e-05 -0.000106862 1.99383
0.255 0.015 -0.0209237 4.50707e-05 -0.000107063 1.99623
0.26 0.015 -0.020968 5.40497e-05 -0.000107313 1.99939
0.265 0.015 -0.0210201 6.18499e-05 -0.000107604 2.0032
0.27 0.015 -0.0210787 6.85414e-05 -0.000107932 2.00756
0.275 0.015 -0.021143 7.41872e-05 -0.00010829 2.01239
0.28 0.015 -0.0212119 7.88447e-05 -0.000108674 2.01759
0.285 0.015 -0.0212846 8.25659e-05 -0.000109079 2.02308
0.29 0.015 -0.0213602 8.53985e-05 -0.0001095 2.0288
0.295 0.015 -0.0214378 8.73866e-05 -0.000109933 2.03466
0.3 0.015 -0.0215167 8.85707e-05 -0.000110374 2.04059
0.305 0.015 -0.0215961 8.89888e-05 -0.00011082 2.04654
0.31 0.015 -0.0216754 8.86764e-05 -0.000111265 2.05244
0.315 0.015 -0.0217539 8.7667e-05 -0.000111707 2.05822
0.32 0.015 -0.0218309 8.59923e-05 -0.000112142 2.06384
0.325 0.015 -0.0219058 8.36829e-05 -0.000112568 2.06924
0.33 0.015 -0.021978 8.07679e-05 -0.00011298 2.07437
0.335 0.015 -0.0220471 7.72755e-05 -0.000113376 2.07917
0.34 0.015 -0.0221123 7.32334e-05 -0.000113753 2.08362
0.345 0.015 -0.0221734 6.86684e-05 -0.000114109 2.08766
0.35 0.015 -0.0222297 6.36069e-05 -0.000114441 2.09124
0.355 0.015 -0.0222809 5.80749e-05 -0.000114746 2.09435
0.36 0.015 -0.0223265 5.20982e-05 -0.000115023 2.09693
0.365 0.015 -0.022366 4.57024e-05 -0.000115268 2.09895
0.37 0.015 -0.0223993 3.89129e-05 -0.000115481 2.10039
0.375 0.015 -0.0224258 3.1755e-05 -0.000115658 2.10122
0.38 0.015 -0.0224452 2.4254e-05 -0.000115799 2.1014
0.385 0.015 -0.0224573 1.64353e-05 -0.000115902 2.10091
0.39 0.015 -0.0224618 8.32395e-06 -0.000115965 2.09974
0.395 0.015 -0.0224585 -5.47263e-08 -0.000115986 2.09786
0.4 0.015 -0.022447 -8.67556e-06 -0.000115965 2.09525
0.405 0.015 -0.0224272 -1.75134e-05 -0.000115901 2.09189
0.41 0.015 -0.0223989 -2.65431e-05 -0.000115791 2.08778
0.415 0.015 -0.022362 -3.57398e-05 -0.000115636 2.0829
0.42 0.015 -0.0223163 -4.50786e-05 -0.000115435 2.07725
0.425 0.015 -0.0222617 -5.45347e-05 -0.000115187 2.0708
0.43 0.015 -0.0221981 -6.40837e-05 -0.000114891 2.06357
0.435 0.015 -0.0221255 -7.37013e-05 -0.000114547 2.05554
0.44 0.015 -0.0220438 -8.33637e-05 -0.000114155 2.04672
0.445 0.015 -0.0219529 -9.30473e-05 -0.000113715 2.0371
0.45 0.015 -0.021853 -0.000102729 -0.000113226 2.02668
0.455 0.015 -0.0217439 -0.000112386 -0.000112689 2.01548
0.46 0.015 -0.0216258 -0.000121996 -0.000112104 2.00349
0.465 0.015 -0.0214987 -0.000131538 -0.00011147 1.99072
0.47 0.015 -0.0213628 -0.00014099 -0.00011079 1.97718
0.475 0.015 -0.021218 -0.000150333 -0.000110062 1.96289
0.48 0.015 -0.0210645 -0.000159546 -0.000109288 1.94784
0.485 0.015 -0.0209025 -0.000168612 -0.000108468 1.93207
0.49 0.015 -0.0207321 -0.000177511 -0.000107603 1.91557
0.495 0.015 -0.0205535 -0.000186227 -0.000106694 1.89838
0.5 0.015 -0.0203668 -0.000194744 -0.000105742 1.88049
0.505 0.015 -0.0201723 -0.000203046 -0.000104748 1.86194
0.51 0.015 -0.0199702 -0.000211119 -0.000103713 1.84274
0.515 0.015 -0.0197607 -0.000218949 -0.000102638 1.82292
0.52 0.015 -0.019544 -0.000226524 -0.000101524 1.80248
0.525 0.015 -0.0193204 -0.000233833 -0.000100374 1.78146
0.53 0.015 -0.0190902 -0.000240866 -9.91873e-05 1.75988
0.535 0.015 -0.0188535 -0.000247612 -9.79663e-05 1.73776
0.54 0.015 -0.0186108 -0.000254064 -9.67124e-05 1.71512
0.545 0.015 -0.0183622 -0.000260215 -9.54269e-05 1.692
0.55 0.015 -0.018108 -0.000266058 -9.41114e-05 1.66841
0.555 0.015 -0.0178486 -0.000271588 -9.27675e-05 1.64437
0.56 0.015 -0.0175842 -0.000276801 -9.13967e-05 1.61993
0.565 0.015 -0.0173152 -0.000281694 -9.00006e-05 1.59509
0.57 0.015 -0.0170418 -0.000286265 -8.85808e-05 1.56989
0.575 0.015 -0.0167644 -0.000290511 -8.7139e-05 1.54436
0.58 0.015 -0.0164831 -0.000294433 -8.56767e-05 1.51851
0.585 0.015 -0.0161985 -0.000298032 -8.41957e-05 1.49237
0.59 0.015 -0.0159106 -0.000301308 -8.26974e-05 1.46598
0.595 0.015 -0.0156199 -0.000304263 -8.11836e-05 1.43935
0.6 0.015 -0.0153267 -0.000306901 -7.96557e-05 1.41251
0.605 0.015 -0.0150312 -0.000309225 -7.81155e-05 1.38549
0.61 0.015 -0.0147337 -0.000311239 -7.65644e-05 1.35831
0.615 0.015 -0.0144345 -0.000312948 -7.5004e-05 1.33099
0.62 0.015 -0.0141339 -0.000314357 -7.34358e-05 1.30357
0.625 0.015 -0.0138322 -0.000315472 -7.18612e-05 1.27605
0.63 0.015 -0.0135297 -0.000316299 -7.02819e-05 1.24847
0.635 0.015 -0.0132265 -0.000316845 -6.8699e-05 1.22085
0.64 0.015 -0.012923 -0.000317118 -6.71141e-05 1.19321
0.645 0.015 -0.0126194 -0.000317124 -6.55286e-05 1.16556
0.65 0.015 -0.012316 -0.000316871 -6.39436e-05 1.13794
0.655 0.015 -0.0120129 -0.000316368 -6.23605e-05 1.11036
0.66 0.015 -0.0117105 -0.000315621 -6.07806e-05 1.08285
0.665 0.015 -0.011409 -0.000314639 -5.92049e-05 1.05541
0.67 0.015 -0.0111085 -0.000313431 -5.76347e-05 1.02807
0.675 0.015 -0.0108092 -0.000312005 -5.60712e-05 1.00084
0.68 0.015 -0.0105115 -0.000310368 -5.45152e-05 0.973754
0.685 0.015 -0.0102153 -0.000308528 -5.2968e-05 0.946813
0.69 0.015 -0.00992109 -0.000306495 -5.14304e-05 0.920038
0.695 0.015 -0.00962885 -0.000304276 -4.99035e-05 0.893444
0.7 0.015 -0.0093388 -0.000301878 -4.83881e-05 0.867045
0.705 0.015 -0.00905111 -0.00029931 -4.68851e-05 0.840856
0.71 0.015 -0.00876594 -0.000296578 -4.53954e-05 0.81489
0.715 0.015 -0.00848342 -0.00029369 -4.39197e-05 0.78916
0.72 0.015 -0.00820371 -0.000290652 -4.24588e-05 0.763679
0.725 0.015 -0.00792694 -0.000287472 -4.10135e-05 0.738458
0.73 0.015 -0.00765325 -0.000284155 -3.95844e-05 0.71351
0.735 0.015 -0.00738276 -0.000280707 -3.81723e-05 0.688845
0.74 0.015 -0.00711559 -0.000277134 -3.67776e-05 0.664474
0.745 0.015 -0.00685185 -0.000273442 -3.54012e-05 0.640408
0.75 0.015 -0.00659166 -0.000269636 -3.40434e-05 0.616655
0.755 0.015 -0.00633513 -0.000265719 -3.2705e-05 0.593227
0.76 0.015 -0.00608235 -0.000261697 -3.13864e-05 0.570131
0.765 0.015 -0.00583342 -0.000257573 -3.00882e-05 0.547377
0.77 0.015 -0.00558844 -0.000253351 -2.88109e-05 0.524974
0.775 0.015 -0.00534751 -0.000249033 -2.75548e-05 0.50293
0.78 0.015 -0.0051107 -0.000244624 -2.63207e-05 0.481253
0.785 0.015 -0.00487812 -0.000240126 -2.51087e-05 0.459951
0.79 0.015 -0.00464984 -0.00023554 -2.39195e-05 0.439033
0.795 0.015 -0.00442594 -0.000230869 -2.27534e-05 0.418505
0.8 0.015 -0.00420651 -0.000226114 -2.16109e-05 0.398376
0.805 0.015 -0.00399163 -0.000221277 -2.04923e-05 0.378653
0.81 0.015 -0.00378138 -0.000216358 -1.93982e-05 0.359343