Title=" Lid Driven Flow"
VARIABLES="X","Y","U","V","psi","xi"
ZONE T= "BOX", I= 201, J=201, F=POINT
0 0 0 0 0.0017816 0
0.005 0 0 0 0 0
0.01 0 0 0 0 0
0.015 0 0 0 0 161.89
0.02 0 0 0 0 176.127
0.025 0 0 0 0 155.62
0.03 0 0 0 0 133.247
0.035 0 0 0 0 115.746
0.04 0 0 0 0 102.909
0.045 0 0 0 0 93.3886
0.05 0 0 0 0 86.0734
0.055 0 0 0 0 80.2296
0.06 0 0 0 0 75.3985
0.065 0 0 0 0 71.2913
0.07 0 0 0 0 67.7211
0.075 0 0 0 0 64.5619
0.08 0 0 0 0 61.7262
0.085 0 0 0 0 59.1515
0.09 0 0 0 0 56.7916
0.095 0 0 0 0 54.6124
0.1 0 0 0 0 52.5874
0.105 0 0 0 0 50.6964
0.11 0 0 0 0 48.9232
0.115 0 0 0 0 47.255
0.12 0 0 0 0 45.6813
0.125 0 0 0 0 44.1934
0.13 0 0 0 0 42.7839
0.135 0 0 0 0 41.4466
0.14 0 0 0 0 40.176
0.145 0 0 0 0 38.9674
0.15 0 0 0 0 37.8164
0.155 0 0 0 0 36.7192
0.16 0 0 0 0 35.6724
0.165 0 0 0 0 34.6726
0.17 0 0 0 0 33.7169
0.175 0 0 0 0 32.8025
0.18 0 0 0 0 31.9269
0.185 0 0 0 0 31.0876
0.19 0 0 0 0 30.2822
0.195 0 0 0 0 29.5087
0.2 0 0 0 0 28.7649
0.205 0 0 0 0 28.049
0.21 0 0 0 0 27.359
0.215 0 0 0 0 26.6934
0.22 0 0 0 0 26.0504
0.225 0 0 0 0 25.4285
0.23 0 0 0 0 24.8261
0.235 0 0 0 0 24.242
0.24 0 0 0 0 23.6748
0.245 0 0 0 0 23.1233
0.25 0 0 0 0 22.5863
0.255 0 0 0 0 22.0627
0.26 0 0 0 0 21.5515
0.265 0 0 0 0 21.0517
0.27 0 0 0 0 20.5625
0.275 0 0 0 0 20.083
0.28 0 0 0 0 19.6123
0.285 0 0 0 0 19.1499
0.29 0 0 0 0 18.695
0.295 0 0 0 0 18.2471
0.3 0 0 0 0 17.8055
0.305 0 0 0 0 17.3698
0.31 0 0 0 0 16.9394
0.315 0 0 0 0 16.514
0.32 0 0 0 0 16.0933
0.325 0 0 0 0 15.6768
0.33 0 0 0 0 15.2644
0.335 0 0 0 0 14.8557
0.34 0 0 0 0 14.4506
0.345 0 0 0 0 14.0489
0.35 0 0 0 0 13.6505
0.355 0 0 0 0 13.2552
0.36 0 0 0 0 12.8632
0.365 0 0 0 0 12.4742
0.37 0 0 0 0 12.0883
0.375 0 0 0 0 11.7056
0.38 0 0 0 0 11.3261
0.385 0 0 0 0 10.9499
0.39 0 0 0 0 10.5771
0.395 0 0 0 0 10.2079
0.4 0 0 0 0 9.84237
0.405 0 0 0 0 9.48071
0.41 0 0 0 0 9.1231
0.415 0 0 0 0 8.76975
0.42 0 0 0 0 8.42086
0.425 0 0 0 0 8.07667
0.43 0 0 0 0 7.73739
0.435 0 0 0 0 7.40327
0.44 0 0 0 0 7.07453
0.445 0 0 0 0 6.75143
0.45 0 0 0 0 6.43418
0.455 0 0 0 0 6.12304
0.46 0 0 0 0 5.81822
0.465 0 0 0 0 5.51995
0.47 0 0 0 0 5.22845
0.475 0 0 0 0 4.94391
0.48 0 0 0 0 4.66652
0.485 0 0 0 0 4.39646
0.49 0 0 0 0 4.13388
0.495 0 0 0 0 3.87894
0.5 0 0 0 0 3.63175
0.505 0 0 0 0 3.39243
0.51 0 0 0 0 3.16106
0.515 0 0 0 0 2.9377
0.52 0 0 0 0 2.72242
0.525 0 0 0 0 2.51522
0.53 0 0 0 0 2.31612
0.535 0 0 0 0 2.12511
0.54 0 0 0 0 1.94215
0.545 0 0 0 0 1.76718
0.55 0 0 0 0 1.60013
0.555 0 0 0 0 1.44092
0.56 0 0 0 0 1.28943
0.565 0 0 0 0 1.14553
0.57 0 0 0 0 1.0091
0.575 0 0 0 0 0.879959
0.58 0 0 0 0 0.757958
0.585 0 0 0 0 0.642913
0.59 0 0 0 0 0.534633
0.595 0 0 0 0 0.432921
0.6 0 0 0 0 0.33757
0.605 0 0 0 0 0.248367
0.61 0 0 0 0 0.165094
0.615 0 0 0 0 0.0875291
0.62 0 0 0 0 0.0154467
0.625 0 0 0 0 -0.0513798
0.63 0 0 0 0 -0.113178
0.635 0 0 0 0 -0.170176
0.64 0 0 0 0 -0.2226
0.645 0 0 0 0 -0.270676
0.65 0 0 0 0 -0.314626
0.655 0 0 0 0 -0.35467
0.66 0 0 0 0 -0.391025
0.665 0 0 0 0 -0.423902
0.67 0 0 0 0 -0.45351
0.675 0 0 0 0 -0.480051
0.68 0 0 0 0 -0.503724
0.685 0 0 0 0 -0.524721
0.69 0 0 0 0 -0.543226
0.695 0 0 0 0 -0.55942
0.7 0 0 0 0 -0.573476
0.705 0 0 0 0 -0.585557
0.71 0 0 0 0 -0.59582
0.715 0 0 0 0 -0.604415
0.72 0 0 0 0 -0.611482
0.725 0 0 0 0 -0.61715
0.73 0 0 0 0 -0.621541
0.735 0 0 0 0 -0.624767
0.74 0 0 0 0 -0.626928
0.745 0 0 0 0 -0.628116
0.75 0 0 0 0 -0.628411
0.755 0 0 0 0 -0.627883
0.76 0 0 0 0 -0.626592
0.765 0 0 0 0 -0.624588
0.77 0 0 0 0 -0.621912
0.775 0 0 0 0 -0.618594
0.78 0 0 0 0 -0.614658
0.785 0 0 0 0 -0.610117
0.79 0 0 0 0 -0.604978
0.795 0 0 0 0 -0.599243
0.8 0 0 0 0 -0.592905
0.805 0 0 0 0 -0.585954
0.81 0 0 0 0 -0.578377
0.815 0 0 0 0 -0.570156
0.82 0 0 0 0 -0.561272
0.825 0 0 0 0 -0.551706
0.83 0 0 0 0 -0.541437
0.835 0 0 0 0 -0.530446
0.84 0 0 0 0 -0.518715
0.845 0 0 0 0 -0.50623
0.85 0 0 0 0 -0.492979
0.855 0 0 0 0 -0.478954
0.86 0 0 0 0 -0.464155
0.865 0 0 0 0 -0.448585
0.87 0 0 0 0 -0.432253
0.875 0 0 0 0 -0.415177
0.88 0 0 0 0 -0.397382
0.885 0 0 0 0 -0.378901
0.89 0 0 0 0 -0.359775
0.895 0 0 0 0 -0.340055
0.9 0 0 0 0 -0.319802
0.905 0 0 0 0 -0.299084
0.91 0 0 0 0 -0.277983
0.915 0 0 0 0 -0.256589
0.92 0 0 0 0 -0.235005
0.925 0 0 0 0 -0.213344
0.93 0 0 0 0 -0.191731
0.935 0 0 0 0 -0.170305
0.94 0 0 0 0 -0.149216
0.945 0 0 0 0 -0.128629
0.95 0 0 0 0 -0.108725
0.955 0 0 0 0 -0.0896962
0.96 0 0 0 0 -0.0717555
0.965 0 0 0 0 -0.0551307
0.97 0 0 0 0 -0.0400674
0.975 0 0 0 0 -0.0268275
0.98 0 0 0 0 -0.0156849
0.985 0 0 0 0 -0.00691483
0.99 0 0 0 0 -0.000766936
0.995 0 0 0 0 0.00259658
1 0 0 0 0 0.00324271
0 0.005 0 0 0 0
0.005 0.005 0 0 0 0
0.01 0.005 0 0 0 73.7263
0.015 0.005 0 0 0 62.0242
0.02 0.005 0 0 0 45.6189
0.025 0.005 0 0 0 33.8191
0.03 0.005 0 0 0 25.9298
0.035 0.005 0 0 0 20.5483
0.04 0.005 0 0 0 16.7225
0.045 0.005 0 0 0 13.8894
0.05 0.005 0 0 0 11.7189
0.055 0.005 0 0 0 10.0119
0.06 0.005 0 0 0 8.64231
0.065 0.005 0 0 0 7.52685
0.07 0.005 0 0 0 6.60792
0.075 0.005 0 0 0 5.84419
0.08 0.005 0 0 0 5.20508
0.085 0.005 0 0 0 4.66738
0.09 0.005 0 0 0 4.21309
0.095 0.005 0 0 0 3.82804
0.1 0.005 0 0 0 3.50088
0.105 0.005 0 0 0 3.22246
0.11 0.005 0 0 0 2.98531
0.115 0.005 0 0 0 2.7833
0.12 0.005 0 0 0 2.61134
0.125 0.005 0 0 0 2.46521
0.13 0.005 0 0 0 2.34139
0.135 0.005 0 0 0 2.23691
0.14 0.005 0 0 0 2.14927
0.145 0.005 0 0 0 2.07636
0.15 0.005 0 0 0 2.01637
0.155 0.005 0 0 0 1.96777
0.16 0.005 0 0 0 1.92926
0.165 0.005 0 0 0 1.89971
0.17 0.005 0 0 0 1.87816
0.175 0.005 0 0 0 1.86377
0.18 0.005 0 0 0 1.85581
0.185 0.005 0 0 0 1.85366
0.19 0.005 0 0 0 1.85677
0.195 0.005 0 0 0 1.86466
0.2 0.005 0 0 0 1.87691
0.205 0.005 0 0 0 1.89314
0.21 0.005 0 0 0 1.91302
0.215 0.005 0 0 0 1.93626
0.22 0.005 0 0 0 1.96258
0.225 0.005 0 0 0 1.99175
0.23 0.005 0 0 0 2.02354
0.235 0.005 0 0 0 2.05776
0.24 0.005 0 0 0 2.09422
0.245 0.005 0 0 0 2.13273
0.25 0.005 0 0 0 2.17314
0.255 0.005 0 0 0 2.2153
0.26 0.005 0 0 0 2.25905
0.265 0.005 0 0 0 2.30425
0.27 0.005 0 0 0 2.35076
0.275 0.005 0 0 0 2.39846
0.28 0.005 0 0 0 2.4472
0.285 0.005 0 0 0 2.49686
0.29 0.005 0 0 0 2.54731
0.295 0.005 0 0 0 2.59842
0.3 0.005 0 0 0 2.65008
0.305 0.005 0 0 0 2.70214
0.31 0.005 0 0 0 2.7545
0.315 0.005 0 0 0 2.80702
0.32 0.005 0 0 0 2.85957
0.325 0.005 0 0 0 2.91204
0.33 0.005 0 0 0 2.96429
0.335 0.005 0 0 0 3.0162
0.34 0.005 0 0 0 3.06766
0.345 0.005 0 0 0 3.11852
0.35 0.005 0 0 0 3.16867
0.355 0.005 0 0 0 3.21798
0.36 0.005 0 0 0 3.26634
0.365 0.005 0 0 0 3.31361
0.37 0.005 0 0 0 3.35968
0.375 0.005 0 0 0 3.40442
0.38 0.005 0 0 0 3.44773
0.385 0.005 0 0 0 3.48947
0.39 0.005 0 0 0 3.52955
0.395 0.005 0 0 0 3.56785
0.4 0.005 0 0 0 3.60426
0.405 0.005 0 0 0 3.63868
0.41 0.005 0 0 0 3.671
0.415 0.005 0 0 0 3.70114
0.42 0.005 0 0 0 3.72899
0.425 0.005 0 0 0 3.75447
0.43 0.005 0 0 0 3.7775
0.435 0.005 0 0 0 3.798
0.44 0.005 0 0 0 3.8159
0.445 0.005 0 0 0 3.83113
0.45 0.005 0 0 0 3.84364
0.455 0.005 0 0 0 3.85336
0.46 0.005 0 0 0 3.86025
0.465 0.005 0 0 0 3.86427
0.47 0.005 0 0 0 3.86539
0.475 0.005 0 0 0 3.86357
0.48 0.005 0 0 0 3.8588
0.485 0.005 0 0 0 3.85107
0.49 0.005 0 0 0 3.84038
0.495 0.005 0 0 0 3.82671
0.5 0.005 0 0 0 3.8101
0.505 0.005 0 0 0 3.79054
0.51 0.005 0 0 0 3.76807
0.515 0.005 0 0 0 3.74272
0.52 0.005 0 0 0 3.71452
0.525 0.005 0 0 0 3.68353
0.53 0.005 0 0 0 3.6498
0.535 0.005 0 0 0 3.61339
0.54 0.005 0 0 0 3.57437
0.545 0.005 0 0 0 3.5328
0.55 0.005 0 0 0 3.48877
0.555 0.005 0 0 0 3.44237
0.56 0.005 0 0 0 3.39368
0.565 0.005 0 0 0 3.34281
0.57 0.005 0 0 0 3.28984
0.575 0.005 0 0 0 3.2349
0.58 0.005 0 0 0 3.17807
0.585 0.005 0 0 0 3.11949
0.59 0.005 0 0 0 3.05927
0.595 0.005 0 0 0 2.99752
0.6 0.005 0 0 0 2.93436
0.605 0.005 0 0 0 2.86992
0.61 0.005 0 0 0 2.80433
0.615 0.005 0 0 0 2.73771
0.62 0.005 0 0 0 2.67018
0.625 0.005 0 0 0 2.60187
0.63 0.005 0 0 0 2.53291
0.635 0.005 0 0 0 2.46342
0.64 0.005 0 0 0 2.39353
0.645 0.005 0 0 0 2.32336
0.65 0.005 0 0 0 2.25302
0.655 0.005 0 0 0 2.18264
0.66 0.005 0 0 0 2.11234
0.665 0.005 0 0 0 2.04221
0.67 0.005 0 0 0 1.97238
0.675 0.005 0 0 0 1.90295
0.68 0.005 0 0 0 1.83401
0.685 0.005 0 0 0 1.76567
0.69 0.005 0 0 0 1.69802
0.695 0.005 0 0 0 1.63115
0.7 0.005 0 0 0 1.56514
0.705 0.005 0 0 0 1.50006
0.71 0.005 0 0 0 1.43601
0.715 0.005 0 0 0 1.37303
0.72 0.005 0 0 0 1.3112
0.725 0.005 0 0 0 1.25058
0.73 0.005 0 0 0 1.19122
0.735 0.005 0 0 0 1.13317
0.74 0.005 0 0 0 1.07648
0.745 0.005 0 0 0 1.02118
0.75 0.005 0 0 0 0.967312
0.755 0.005 0 0 0 0.914902
0.76 0.005 0 0 0 0.863978
0.765 0.005 0 0 0 0.814562
0.77 0.005 0 0 0 0.76667
0.775 0.005 0 0 0 0.720317
0.78 0.005 0 0 0 0.675512
0.785 0.005 0 0 0 0.632261
0.79 0.005 0 0 0 0.590566
0.795 0.005 0 0 0 0.550427
0.8 0.005 0 0 0 0.511839
0.805 0.005 0 0 0 0.474797
0.81 0.005 0 0 0 0.439291
0.815 0.005 0 0 0 0.405309
0.82 0.005 0 0 0 0.372838
0.825 0.005 0 0 0 0.341861
0.83 0.005 0 0 0 0.312362
0.835 0.005 0 0 0 0.28432
0.84 0.005 0 0 0 0.257715
0.845 0.005 0 0 0 0.232524
0.85 0.005 0 0 0 0.208726
0.855 0.005 0 0 0 0.186295
0.86 0.005 0 0 0 0.165207
0.865 0.005 0 0 0 0.145437
0.87 0.005 0 0 0 0.126959
0.875 0.005 0 0 0 0.109747
0.88 0.005 0 0 0 0.0937741
0.885 0.005 0 0 0 0.0790141
0.89 0.005 0 0 0 0.0654404
0.895 0.005 0 0 0 0.0530266
0.9 0.005 0 0 0 0.0417462
0.905 0.005 0 0 0 0.0315727
0.91 0.005 0 0 0 0.0224799
0.915 0.005 0 0 0 0.0144413
0.92 0.005 0 0 0 0.00743048
0.925 0.005 0 0 0 0.0014204
0.93 0.005 0 0 0 -0.00361646
0.935 0.005 0 0 0 -0.00770876
0.94 0.005 0 0 0 -0.0108869
0.945 0.005 0 0 0 -0.0131837
0.95 0.005 0 0 0 -0.0146358
0.955 0.005 0 0 0 -0.0152852
0.96 0.005 0 0 0 -0.0151814
0.965 0.005 0 0 0 -0.0143848
0.97 0.005 0 0 0 -0.0129717
0.975 0.005 0 0 0 -0.0110405
0.98 0.005 0 0 0 -0.00872236
0.985 0.005 0 0 0 -0.00619533
0.99 0.005 0 0 0 -0.00370462
0.995 0.005 0 0 0 -0.00158282
1 0.005 0 0 0 -0.000241157
0 0.01 0 0 -0.000241157 0
0.005 0.01 0 0 0 -326.274
0.01 0.01 -0.179996 0.0775303 -0.000921579 -44.4423
0.015 0.01 -0.184657 -0.0351343 -0.000775303 9.48688
0.02 0.01 -0.156009 -0.0352564 -0.000570236 19.0874
0.025 0.01 -0.127103 -0.0246113 -0.000422739 18.9775
0.03 0.01 -0.103777 -0.0165885 -0.000324123 16.8347
0.035 0.01 -0.0857723 -0.0115091 -0.000256854 14.5385
0.04 0.01 -0.0718616 -0.00832362 -0.000209032 12.5184
0.045 0.01 -0.0609588 -0.0062545 -0.000173617 10.8255
0.05 0.01 -0.0522702 -0.00484688 -0.000146487 9.42082
0.055 0.01 -0.0452397 -0.00384579 -0.000125149 8.25273
0.06 0.01 -0.0394778 -0.00310629 -0.000108029 7.27589
0.065 0.01 -0.0347066 -0.00254298 -9.40856e-05 6.45405
0.07 0.01 -0.030723 -0.00210332 -8.25989e-05 5.75888
0.075 0.01 -0.0273751 -0.00175354 -7.30522e-05 5.16817
0.08 0.01 -0.0245469 -0.001471 -6.50633e-05 4.66439
0.085 0.01 -0.0221479 -0.00123997 -5.83421e-05 4.2335
0.09 0.01 -0.0201065 -0.00104916 -5.26635e-05 3.86414
0.095 0.01 -0.0183653 -0.00089025 -4.78503e-05 3.54704
0.1 0.01 -0.0168776 -0.000756955 -4.37608e-05 3.27455
0.105 0.01 -0.0156053 -0.000644444 -4.02806e-05 3.04031
0.11 0.01 -0.0145169 -0.000548938 -3.73162e-05 2.83902
0.115 0.01 -0.0135861 -0.00046745 -3.4791e-05 2.66619
0.12 0.01 -0.0127912 -0.000397585 -3.26415e-05 2.51807
0.125 0.01 -0.0121138 -0.000337412 -3.0815e-05 2.39146
0.13 0.01 -0.0115384 -0.000285358 -2.92673e-05 2.28364
0.135 0.01 -0.011052 -0.000240134 -2.79613e-05 2.1923
0.14 0.01 -0.0106434 -0.000200681 -2.68658e-05 2.11544
0.145 0.01 -0.0103031 -0.000166118 -2.59543e-05 2.05136
0.15 0.01 -0.0100232 -0.000135717 -2.52044e-05 1.9986
0.155 0.01 -0.00979654 -0.000108868 -2.4597e-05 1.95589
0.16 0.01 -0.00961729 -8.506e-05 -2.41156e-05 1.92214
0.165 0.01 -0.00948026 -6.38652e-05 -2.37463e-05 1.8964
0.17 0.01 -0.009381 -4.49222e-05 -2.34769e-05 1.87783
0.175 0.01 -0.00931564 -2.79265e-05 -2.3297e-05 1.86572
0.18 0.01 -0.00928083 -1.26204e-05 -2.31975e-05 1.85943
0.185 0.01 -0.00927361 1.21454e-06 -2.31706e-05 1.85842
0.19 0.01 -0.00929141 1.37633e-05 -2.32095e-05 1.86219
0.195 0.01 -0.00933197 2.51831e-05 -2.33082e-05 1.87031
0.2 0.01 -0.00939327 3.56072e-05 -2.34613e-05 1.88239
0.205 0.01 -0.00947354 4.51491e-05 -2.36642e-05 1.89811
0.21 0.01 -0.00957119 5.39047e-05 -2.39127e-05 1.91714
0.215 0.01 -0.0096848 6.19557e-05 -2.42032e-05 1.93921
0.22 0.01 -0.00981306 6.93711e-05 -2.45322e-05 1.96407
0.225 0.01 -0.00995482 7.62093e-05 -2.48968e-05 1.99149
0.23 0.01 -0.010109 8.25196e-05 -2.52943e-05 2.02127
0.235 0.01 -0.0102746 8.83431e-05 -2.5722e-05 2.0532
0.24 0.01 -0.0104507 9.37147e-05 -2.61777e-05 2.08712
0.245 0.01 -0.0106365 9.86632e-05 -2.66591e-05 2.12284
0.25 0.01 -0.0108312 0.000103212 -2.71643e-05 2.16021
0.255 0.01 -0.011034 0.000107382 -2.76912e-05 2.19908
0.26 0.01 -0.0112441 0.000111188 -2.82381e-05 2.2393
0.265 0.01 -0.0114608 0.000114644 -2.88031e-05 2.28074
0.27 0.01 -0.0116836 0.000117759 -2.93846e-05 2.32327
0.275 0.01 -0.0119117 0.000120542 -2.99807e-05 2.36674
0.28 0.01 -0.0121444 0.000122999 -3.059e-05 2.41103
0.285 0.01 -0.0123812 0.000125135 -3.12108e-05 2.45603
0.29 0.01 -0.0126214 0.000126953 -3.18414e-05 2.5016
0.295 0.01 -0.0128644 0.000128455 -3.24804e-05 2.54762
0.3 0.01 -0.0131096 0.000129643 -3.31261e-05 2.59398
0.305 0.01 -0.0133564 0.000130518 -3.37769e-05 2.64055
0.31 0.01 -0.0136041 0.00013108 -3.44313e-05 2.68722
0.315 0.01 -0.0138522 0.000131329 -3.50878e-05 2.73387
0.32 0.01 -0.0141 0.000131265 -3.57447e-05 2.78039
0.325 0.01 -0.014347 0.000130888 -3.64006e-05 2.82666
0.33 0.01 -0.0145925 0.000130198 -3.70538e-05 2.87256
0.335 0.01 -0.014836 0.000129196 -3.77027e-05 2.91797
0.34 0.01 -0.0150769 0.00012788 -3.83459e-05 2.9628
0.345 0.01 -0.0153145 0.000126252 -3.89817e-05 3.00692
0.35 0.01 -0.0155483 0.000124314 -3.96086e-05 3.05023
0.355 0.01 -0.0157777 0.000122067 -4.0225e-05 3.0926
0.36 0.01 -0.0160021 0.000119513 -4.08294e-05 3.13395
0.365 0.01 -0.0162209 0.000116654 -4.14203e-05 3.17415
0.37 0.01 -0.0164336 0.000113495 -4.19962e-05 3.21311
0.375 0.01 -0.0166397 0.000110039 -4.25555e-05 3.25071
0.38 0.01 -0.0168385 0.000106291 -4.30968e-05 3.28687
0.385 0.01 -0.0170295 0.000102257 -4.36187e-05 3.32148
0.39 0.01 -0.0172123 9.79435e-05 -4.41197e-05 3.35446
0.395 0.01 -0.0173862 9.33568e-05 -4.45984e-05 3.38569
0.4 0.01 -0.0175509 8.85054e-05 -4.50535e-05 3.41511
0.405 0.01 -0.0177059 8.33979e-05 -4.54838e-05 3.44262
0.41 0.01 -0.0178506 7.80439e-05 -4.58878e-05 3.46814
0.415 0.01 -0.0179847 7.24538e-05 -4.62645e-05 3.4916
0.42 0.01 -0.0181078 6.66386e-05 -4.66127e-05 3.51292
0.425 0.01 -0.0182194 6.06104e-05 -4.69312e-05 3.53203
0.43 0.01 -0.0183191 5.43817e-05 -4.72191e-05 3.54888
0.435 0.01 -0.0184068 4.79661e-05 -4.74754e-05 3.56339
0.44 0.01 -0.018482 4.13776e-05 -4.76992e-05 3.57553
0.445 0.01 -0.0185444 3.4631e-05 -4.78896e-05 3.58523
0.45 0.01 -0.0185938 2.77417e-05 -4.80459e-05 3.59247
0.455 0.01 -0.01863 2.07257e-05 -4.81674e-05 3.59719
0.46 0.01 -0.0186527 1.35995e-05 -4.82535e-05 3.59938
0.465 0.01 -0.0186618 6.38002e-06 -4.83038e-05 3.599
0.47 0.01 -0.0186572 -9.15184e-07 -4.83177e-05 3.59603
0.475 0.01 -0.0186388 -8.26837e-06 -4.8295e-05 3.59047
0.48 0.01 -0.0186065 -1.56614e-05 -4.82355e-05 3.5823
0.485 0.01 -0.0185602 -2.30761e-05 -4.81389e-05 3.57152
0.49 0.01 -0.0185001 -3.04937e-05 -4.80051e-05 3.55814
0.495 0.01 -0.018426 -3.78958e-05 -4.78344e-05 3.54218
0.5 0.01 -0.0183381 -4.52636e-05 -4.76266e-05 3.52364
0.505 0.01 -0.0182364 -5.25786e-05 -4.73822e-05 3.50255
0.51 0.01 -0.0181212 -5.98223e-05 -4.71013e-05 3.47895
0.515 0.01 -0.0179926 -6.69763e-05 -4.67844e-05 3.45286
0.52 0.01 -0.0178507 -7.40227e-05 -4.6432e-05 3.42434
0.525 0.01 -0.0176959 -8.09438e-05 -4.60446e-05 3.39342
0.53 0.01 -0.0175283 -8.77222e-05 -4.5623e-05 3.36016
0.535 0.01 -0.0173483 -9.43413e-05 -4.51679e-05 3.32461
0.54 0.01 -0.0171563 -0.000100785 -4.46801e-05 3.28685
0.545 0.01 -0.0169525 -0.000107037 -4.41605e-05 3.24694
0.55 0.01 -0.0167373 -0.000113083 -4.36101e-05 3.20495
0.555 0.01 -0.0165112 -0.000118908 -4.30301e-05 3.16096
0.56 0.01 -0.0162746 -0.0001245 -4.24215e-05 3.11505
0.565 0.01 -0.0160279 -0.000129846 -4.17855e-05 3.06731
0.57 0.01 -0.0157717 -0.000134934 -4.11235e-05 3.01782
0.575 0.01 -0.0155064 -0.000139754 -4.04366e-05 2.96669
0.58 0.01 -0.0152324 -0.000144296 -3.97264e-05 2.914
0.585 0.01 -0.0149505 -0.000148552 -3.89941e-05 2.85985
0.59 0.01 -0.014661 -0.000152513 -3.82413e-05 2.80435
0.595 0.01 -0.0143646 -0.000156175 -3.74694e-05 2.74759
0.6 0.01 -0.0140618 -0.00015953 -3.66799e-05 2.68969
0.605 0.01 -0.0137531 -0.000162577 -3.58744e-05 2.63074
0.61 0.01 -0.0134393 -0.00016531 -3.50545e-05 2.57085
0.615 0.01 -0.0131208 -0.000167729 -3.42217e-05 2.51013
0.62 0.01 -0.0127982 -0.000169832 -3.33776e-05 2.44868
0.625 0.01 -0.0124721 -0.000171621 -3.25238e-05 2.38662
0.63 0.01 -0.0121431 -0.000173096 -3.16617e-05 2.32405
0.635 0.01 -0.0118118 -0.00017426 -3.07931e-05 2.26107
0.64 0.01 -0.0114787 -0.000175116 -2.99195e-05 2.19778
0.645 0.01 -0.0111444 -0.000175669 -2.90423e-05 2.1343
0.65 0.01 -0.0108095 -0.000175925 -2.81631e-05 2.07072
0.655 0.01 -0.0104744 -0.000175889 -2.72833e-05 2.00715
0.66 0.01 -0.0101398 -0.000175569 -2.64045e-05 1.94367
0.665 0.01 -0.00980615 -0.000174973 -2.55279e-05 1.88038
0.67 0.01 -0.00947394 -0.000174109 -2.4655e-05 1.81738
0.675 0.01 -0.00914365 -0.000172988 -2.37871e-05 1.75475
0.68 0.01 -0.00881575 -0.000171618 -2.29254e-05 1.69258
0.685 0.01 -0.00849071 -0.000170011 -2.20711e-05 1.63094
0.69 0.01 -0.00816893 -0.000168177 -2.12255e-05 1.56993
0.695 0.01 -0.00785083 -0.000166128 -2.03896e-05 1.50961
0.7 0.01 -0.0075368 -0.000163876 -1.95644e-05 1.45005
0.705 0.01 -0.0072272 -0.000161432 -1.8751e-05 1.39131
0.71 0.01 -0.00692237 -0.00015881 -1.79502e-05 1.33348
0.715 0.01 -0.00662264 -0.00015602 -1.7163e-05 1.27659
0.72 0.01 -0.0063283 -0.000153076 -1.63902e-05 1.22071
0.725 0.01 -0.00603963 -0.00014999 -1.56324e-05 1.16589
0.73 0.01 -0.00575687 -0.000146775 -1.48904e-05 1.11218
0.735 0.01 -0.00548027 -0.000143442 -1.41648e-05 1.05961
0.74 0.01 -0.00521003 -0.000140004 -1.34561e-05 1.00822
0.745 0.01 -0.00494633 -0.000136473 -1.27649e-05 0.95806
0.75 0.01 -0.00468933 -0.00013286 -1.20915e-05 0.909148
0.755 0.01 -0.00443919 -0.000129176 -1.14364e-05 0.861515
0.76 0.01 -0.00419603 -0.000125434 -1.07998e-05 0.815184
0.765 0.01 -0.00395994 -0.000121642 -1.01821e-05 0.770175
0.77 0.01 -0.00373102 -0.000117813 -9.58344e-06 0.726504
0.775 0.01 -0.00350932 -0.000113954 -9.00402e-06 0.684184
0.78 0.01 -0.0032949 -0.000110076 -8.44395e-06 0.643225
0.785 0.01 -0.00308779 -0.000106188 -7.9033e-06 0.603634
0.79 0.01 -0.00288801 -0.000102297 -7.38211e-06 0.565414
0.795 0.01 -0.00269555 -9.8412e-05 -6.88036e-06 0.528567
0.8 0.01 -0.0025104 -9.454e-05 -6.39801e-06 0.493091
0.805 0.01 -0.00233253 -9.06878e-05 -5.93498e-06 0.458982
0.81 0.01 -0.00216191 -8.68618e-05 -5.49115e-06 0.426235
0.815 0.01 -0.00199848 -8.30677e-05 -5.06637e-06 0.39484
0.82 0.01 -0.0018422 -7.93108e-05 -4.66048e-06 0.364788
0.825 0.01 -0.00169297 -7.55959e-05 -4.27327e-06 0.336066
0.83 0.01 -0.00155074 -7.19274e-05 -3.90452e-06 0.308662
0.835 0.01 -0.0014154 -6.83089e-05 -3.55399e-06 0.282559
0.84 0.01 -0.00128687 -6.4744e-05 -3.22143e-06 0.257742
0.845 0.01 -0.00116505 -6.12354e-05 -2.90654e-06 0.234193
0.85 0.01 -0.00104984 -5.77857e-05 -2.60906e-06 0.211894
0.855 0.01 -0.000941117 -5.43969e-05 -2.32868e-06 0.190824
0.86 0.01 -0.000838779 -5.10708e-05 -2.06508e-06 0.170964
0.865 0.01 -0.000742709 -4.78087e-05 -1.81795e-06 0.152293
0.87 0.01 -0.000652787 -4.46115e-05 -1.58698e-06 0.134789
0.875 0.01 -0.000568894 -4.148e-05 -1.37182e-06 0.118431
0.88 0.01 -0.000490908 -3.84146e-05 -1.17216e-06 0.103196
0.885 0.01 -0.000418705 -3.54154e-05 -9.87659e-07 0.0890619
0.89 0.01 -0.000352162 -3.24827e-05 -8.17988e-07 0.0760052
0.895 0.01 -0.000291155 -2.96161e-05 -6.62816e-07 0.064003
0.9 0.01 -0.000235559 -2.68157e-05 -5.2181e-07 0.053032
0.905 0.01 -0.00018525 -2.40811e-05 -3.94643e-07 0.0430685
0.91 0.01 -0.000140101 -2.14126e-05 -2.80983e-07 0.0340885
0.915 0.01 -9.99858e-05 -1.88102e-05 -1.80502e-07 0.0260676
0.92 0.01 -6.47751e-05 -1.62747e-05 -9.28666e-08 0.0189807
0.925 0.01 -3.4337e-05 -1.38072e-05 -1.77415e-08 0.0128017
0.93 0.01 -8.53512e-06 -1.14101e-05 4.52182e-08 0.0075034
0.935 0.01 1.27738e-05 -9.08678e-06 9.6371e-08 0.00305687
0.94 0.01 2.9743e-05 -6.84252e-06 1.36096e-07 -0.000569168
0.945 0.01 4.25391e-05 -4.68514e-06 1.64805e-07 -0.00340919
0.95 0.01 5.13487e-05 -2.62594e-06 1.82956e-07 -0.00550194
0.955 0.01 5.63849e-05 -6.81139e-07 1.91071e-07 -0.00689192
0.96 0.01 5.78981e-05 1.12608e-06 1.89773e-07 -0.00763131
0.965 0.01 5.61895e-05 2.76259e-06 1.79815e-07 -0.0077825
0.97 0.01 5.16304e-05 4.18081e-06 1.6215e-07 -0.0074213
0.975 0.01 4.46875e-05 5.31204e-06 1.38009e-07 -0.0066409
0.98 0.01 3.59574e-05 6.05675e-06 1.09031e-07 -0.00555619
0.985 0.01 2.62099e-05 6.27231e-06 7.74424e-08 -0.00430683
0.99 0.01 1.64362e-05 5.76572e-06 4.6308e-08 -0.00305436
0.995 0.01 7.87917e-06 4.32935e-06 1.97851e-08 -0.00195897
1 0.01 1.97425e-06 1.97851e-06 3.01437e-09 -0.00109882
0 0.015 0 0 -0.0015794 0
0.005 0.015 0 0 0 -256.003
0.01 0.015 -0.152737 0.184657 -0.00179996 -79.3092
0.015 0.015 -0.205924 -0.023987 -0.00184657 -16.6555
0.02 0.015 -0.204117 -0.0575535 -0.00156009 2.35602
0.025 0.015 -0.18411 -0.0522322 -0.00127103 8.01172
0.03 0.015 -0.160815 -0.0413312 -0.00103777 9.36375
0.035 0.015 -0.139213 -0.031915 -0.000857723 9.253
0.04 0.015 -0.120545 -0.0248134 -0.000718616 8.65461
0.045 0.015 -0.104793 -0.0195914 -0.000609588 7.92511
0.05 0.015 -0.0915801 -0.0157192 -0.000522701 7.19815
0.055 0.015 -0.0804866 -0.0127923 -0.000452397 6.52225
0.06 0.015 -0.0711397 -0.0105331 -0.000394778 5.91224
0.065 0.015 -0.063232 -0.00875481 -0.000347066 5.36946
0.07 0.015 -0.0565154 -0.00733146 -0.000307229 4.89003
0.075 0.015 -0.0507906 -0.00617604 -0.00027375 4.46824
0.08 0.015 -0.0458969 -0.00522716 -0.000245468 4.09808
0.085 0.015 -0.041704 -0.00444031 -0.000221478 3.77376
0.09 0.015 -0.038105 -0.00378253 -0.000201065 3.48998
0.095 0.015 -0.0350119 -0.00322883 -0.000183652 3.24201
0.1 0.015 -0.0323517 -0.00275992 -0.000168776 3.02563
0.105 0.015 -0.0300633 -0.00236069 -0.000156053 2.83714
0.11 0.015 -0.0280958 -0.00201914 -0.000145168 2.67327
0.115 0.015 -0.026406 -0.00172561 -0.000135861 2.53117
0.12 0.015 -0.0249573 -0.00147228 -0.000127911 2.40834
0.125 0.015 -0.0237189 -0.00125275 -0.000121137 2.30259
0.13 0.015 -0.0226643 -0.00106177 -0.000115383 2.21202
0.135 0.015 -0.021771 -0.000894984 -0.000110519 2.13494
0.14 0.015 -0.0210198 -0.000748779 -0.000106433 2.06989
0.145 0.015 -0.0203939 -0.000620135 -0.000103031 2.01559
0.15 0.015 -0.0198792 -0.000506524 -0.000100231 1.97089
0.155 0.015 -0.0194632 -0.00040582 -9.79649e-05 1.93482
0.16 0.015 -0.0191354 -0.000316231 -9.61724e-05 1.9065
0.165 0.015 -0.0188863 -0.000236243 -9.48022e-05 1.88515
0.17 0.015 -0.0187079 -0.000164574 -9.38096e-05 1.87011
0.175 0.015 -0.0185932 -0.000100133 -9.3156e-05 1.86077
0.18 0.015 -0.0185359 -4.19973e-05 -9.28079e-05 1.85659
0.185 0.015 -0.0185307 1.06222e-05 -9.27357e-05 1.8571
0.19 0.015 -0.0185728 5.8396e-05 -9.29138e-05 1.86188
0.195 0.015 -0.0186578 0.000101896 -9.33193e-05 1.87055
0.2 0.015 -0.0187822 0.00014161 -9.39324e-05 1.88277
0.205 0.015 -0.0189424 0.000177953 -9.47352e-05 1.89824
0.21 0.015 -0.0191355 0.000211279 -9.57117e-05 1.91666
0.215 0.015 -0.0193587 0.000241891 -9.68478e-05 1.9378
0.22 0.015 -0.0196097 0.000270043 -9.81304e-05 1.96142
0.225 0.015 -0.0198861 0.000295955 -9.9548e-05 1.9873
0.23 0.015 -0.0201858 0.000319809 -0.00010109 2.01525
0.235 0.015 -0.020507 0.000341761 -0.000102746 2.04509
0.24 0.015 -0.0208479 0.000361942 -0.000104507 2.07664
0.245 0.015 -0.0212067 0.000380461 -0.000106365 2.10974
0.25 0.015 -0.021582 0.000397411 -0.000108312 2.14424
0.255 0.015 -0.0219723 0.000412865 -0.00011034 2.18
0.26 0.015 -0.022376 0.000426887 -0.000112441 2.21687
0.265 0.015 -0.0227919 0.000439528 -0.000114608 2.25472
0.27 0.015 -0.0232185 0.000450829 -0.000116836 2.29342
0.275 0.015 -0.0236547 0.000460822 -0.000119117 2.33285
0.28 0.015 -0.024099 0.000469535 -0.000121444 2.37287
0.285 0.015 -0.0245504 0.000476986 -0.000123812 2.41338
0.29 0.015 -0.0250075 0.000483193 -0.000126215 2.45426
0.295 0.015 -0.0254692 0.000488166 -0.000128645 2.49538
0.3 0.015 -0.0259342 0.000491915 -0.000131097 2.53665
0.305 0.015 -0.0264014 0.000494446 -0.000133564 2.57794
0.31 0.015 -0.0268695 0.000495764 -0.000136041 2.61914
0.315 0.015 -0.0273375 0.000495873 -0.000138522 2.66015
0.32 0.015 -0.0278042 0.000494777 -0.000141001 2.70085
0.325 0.015 -0.0282684 0.000492479 -0.000143471 2.74116
0.33 0.015 -0.0287289 0.000488982 -0.000145926 2.78095
0.335 0.015 -0.0291846 0.00048429 -0.000148361 2.82012
0.34 0.015 -0.0296345 0.00047841 -0.00015077 2.85859
0.345 0.015 -0.0300773 0.000471347 -0.000153146 2.89623
0.35 0.015 -0.0305119 0.00046311 -0.000155484 2.93297
0.355 0.015 -0.0309373 0.000453709 -0.000157778 2.9687
0.36 0.015 -0.0313524 0.000443156 -0.000160022 3.00332
0.365 0.015 -0.031756 0.000431466 -0.00016221 3.03676
0.37 0.015 -0.0321472 0.000418656 -0.000164337 3.06891
0.375 0.015 -0.0325249 0.000404744 -0.000166398 3.0997
0.38 0.015 -0.0328882 0.000389752 -0.000168386 3.12904
0.385 0.015 -0.0332359 0.000373706 -0.000170296 3.15685
0.39 0.015 -0.0335673 0.000356633 -0.000172124 3.18305
0.395 0.015 -0.0338813 0.000338563 -0.000173864 3.20757
0.4 0.015 -0.0341771 0.000319529 -0.000175511 3.23033
0.405 0.015 -0.0344537 0.000299566 -0.00017706 3.25128
0.41 0.015 -0.0347105 0.000278715 -0.000178507 3.27035
0.415 0.015 -0.0349466 0.000257016 -0.000179848 3.28749
0.42 0.015 -0.0351613 0.000234514 -0.000181079 3.30263
0.425 0.015 -0.0353539 0.000211255 -0.000182195 3.31572
0.43 0.015 -0.0355238 0.00018729 -0.000183193 3.32673
0.435 0.015 -0.0356703 0.00016267 -0.000184069 3.33561
0.44 0.015 -0.035793 0.000137449 -0.000184821 3.34233
0.445 0.015 -0.0358913 0.000111685 -0.000185445 3.34685
0.45 0.015 -0.0359649 8.54364e-05 -0.000185939 3.34915
0.455 0.015 -0.0360133 5.8763e-05 -0.000186301 3.34921
0.46 0.015 -0.0360362 3.17276e-05 -0.000186529 3.347
0.465 0.015 -0.0360334 4.39379e-06 -0.00018662 3.34253
0.47 0.015 -0.0360046 -2.31732e-05 -0.000186574 3.33578
0.475 0.015 -0.0359498 -5.09073e-05 -0.00018639 3.32675
0.48 0.015 -0.0358689 -7.87413e-05 -0.000186067 3.31545
0.485 0.015 -0.0357618 -0.000106608 -0.000185604 3.30189
0.49 0.015 -0.0356286 -0.000134438 -0.000185002 3.28607
0.495 0.015 -0.0354694 -0.000162165 -0.000184261 3.26803
0.5 0.015 -0.0352844 -0.000189719 -0.000183382 3.24778
0.505 0.015 -0.0350738 -0.000217034 -0.000182366 3.22536
0.51 0.015 -0.034838 -0.000244042 -0.000181214 3.20079
0.515 0.015 -0.0345772 -0.000270676 -0.000179927 3.17412
0.52 0.015 -0.0342919 -0.000296873 -0.000178509 3.14538
0.525 0.015 -0.0339825 -0.000322568 -0.00017696 3.11464
0.53 0.015 -0.0336497 -0.000347699 -0.000175285 3.08193
0.535 0.015 -0.0332939 -0.000372207 -0.000173485 3.04731
0.54 0.015 -0.0329158 -0.000396033 -0.000171564 3.01085
0.545 0.015 -0.0325162 -0.000419122 -0.000169527 2.97261
0.55 0.015 -0.0320956 -0.000441421 -0.000167375 2.93264
0.555 0.015 -0.031655 -0.00046288 -0.000165114 2.89103
0.56 0.015 -0.0311951 -0.000483453 -0.000162748 2.84785
0.565 0.015 -0.0307167 -0.000503094 -0.000160281 2.80316
0.57 0.015 -0.0302209 -0.000521765 -0.000157719 2.75706
0.575 0.015 -0.0297084 -0.000539427 -0.000155065 2.70962
0.58 0.015 -0.0291803 -0.000556048 -0.000152326 2.66091
0.585 0.015 -0.0286376 -0.000571599 -0.000149506 2.61104
0.59 0.015 -0.0280813 -0.000586053 -0.000146612 2.56007
0.595 0.015 -0.0275123 -0.000599388 -0.000143647 2.50811
0.6 0.015 -0.0269318 -0.000611589 -0.000140619 2.45523
0.605 0.015 -0.0263408 -0.000622639 -0.000137533 2.40152
0.61 0.015 -0.0257404 -0.000632531 -0.000134394 2.34708
0.615 0.015 -0.0251316 -0.000641258 -0.000131209 2.29199
0.62 0.015 -0.0245155 -0.000648819 -0.000127983 2.23635
0.625 0.015 -0.0238933 -0.000655216 -0.000124722 2.18023
0.63 0.015 -0.0232658 -0.000660456 -0.000121432 2.12374
0.635 0.015 -0.0226344 -0.000664547 -0.000118119 2.06695
0.64 0.015 -0.0219998 -0.000667505 -0.000114788 2.00995
0.645 0.015 -0.0213633 -0.000669345 -0.000111445 1.95283
0.65 0.015 -0.0207259 -0.000670088 -0.000108096 1.89567
0.655 0.015 -0.0200884 -0.000669758 -0.000104745 1.83855
0.66 0.015 -0.019452 -0.000668382 -0.000101399 1.78156
0.665 0.015 -0.0188174 -0.000665988 -9.80626e-05 1.72476
0.67 0.015 -0.0181858 -0.00066261 -9.47403e-05 1.66824
0.675 0.015 -0.0175579 -0.00065828 -9.14374e-05 1.61207
0.68 0.015 -0.0169346 -0.000653036 -8.81585e-05 1.55631
0.685 0.015 -0.0163167 -0.000646916 -8.49079e-05 1.50105
0.69 0.015 -0.0157051 -0.000639961 -8.16901e-05 1.44633
0.695 0.015 -0.0151004 -0.000632211 -7.85091e-05 1.39222
0.7 0.015 -0.0145034 -0.00062371 -7.53687e-05 1.33879
0.705 0.015 -0.0139148 -0.000614501 -7.22727e-05 1.28608
0.71 0.015 -0.0133351 -0.000604629 -6.92244e-05 1.23415
0.715 0.015 -0.0127651 -0.000594139 -6.6227e-05 1.18305
0.72 0.015 -0.0122051 -0.000583076 -6.32836e-05 1.13283
0.725 0.015 -0.0116558 -0.000571484 -6.03968e-05 1.08352
0.73 0.015 -0.0111176 -0.00055941 -5.75692e-05 1.03518
0.735 0.015 -0.0105909 -0.000546898 -5.48032e-05 0.987823
0.74 0.015 -0.0100761 -0.000533993 -5.21007e-05 0.941498
0.745 0.015 -0.00957364 -0.000520736 -4.94637e-05 0.89623
0.75 0.015 -0.00908373 -0.000507172 -4.68937e-05 0.852047
0.755 0.015 -0.00860665 -0.000493341 -4.43923e-05 0.808973
0.76 0.015 -0.00814266 -0.000479285 -4.19606e-05 0.767029
0.765 0.015 -0.00769195 -0.00046504 -3.95997e-05 0.726233
0.77 0.015 -0.00725468 -0.000450646 -3.73104e-05 0.686599
0.775 0.015 -0.00683097 -0.000436138 -3.50934e-05 0.648142
0.78 0.015 -0.00642093 -0.000421551 -3.29492e-05 0.610869
0.785 0.015 -0.00602462 -0.000406916 -3.08781e-05 0.57479
0.79 0.015 -0.00564208 -0.000392265 -2.88802e-05 0.539909
0.795 0.015 -0.00527331 -0.000377627 -2.69556e-05 0.506228
0.8 0.015 -0.0049183 -0.000363029 -2.51041e-05 0.473749
0.805 0.015 -0.00457701 -0.000348496 -2.33254e-05 0.442469
0.81 0.015 -0.00424937 -0.000334053 -2.16192e-05 0.412385
0.815 0.015 -0.0039353 -0.00031972 -1.99849e-05 0.383492
0.82 0.015 -0.00363469 -0.000305517 -1.8422e-05 0.355783
0.825 0.015 -0.00334743 -0.000291463 -1.69297e-05 0.32925