Title=" Lid Driven Flow"
VARIABLES="X","Y","U","V","psi","xi"
ZONE T= "BOX", I= 201, J=201, F=POINT
0 0 0 0 0.0034733 0
0.005 0 0 0 0 0
0.01 0 0 0 0 0
0.015 0 0 0 0 161.891
0.02 0 0 0 0 176.121
0.025 0 0 0 0 155.597
0.03 0 0 0 0 133.202
0.035 0 0 0 0 115.677
0.04 0 0 0 0 102.819
0.045 0 0 0 0 93.2842
0.05 0 0 0 0 85.9615
0.055 0 0 0 0 80.1185
0.06 0 0 0 0 75.2965
0.065 0 0 0 0 71.2067
0.07 0 0 0 0 67.6613
0.075 0 0 0 0 64.5334
0.08 0 0 0 0 61.7348
0.085 0 0 0 0 59.2018
0.09 0 0 0 0 56.8874
0.095 0 0 0 0 54.7564
0.1 0 0 0 0 52.7817
0.105 0 0 0 0 50.9422
0.11 0 0 0 0 49.2212
0.115 0 0 0 0 47.6052
0.12 0 0 0 0 46.0834
0.125 0 0 0 0 44.6465
0.13 0 0 0 0 43.287
0.135 0 0 0 0 41.9983
0.14 0 0 0 0 40.7749
0.145 0 0 0 0 39.6118
0.15 0 0 0 0 38.5046
0.155 0 0 0 0 37.4495
0.16 0 0 0 0 36.443
0.165 0 0 0 0 35.4817
0.17 0 0 0 0 34.5629
0.175 0 0 0 0 33.6837
0.18 0 0 0 0 32.8417
0.185 0 0 0 0 32.0344
0.19 0 0 0 0 31.2598
0.195 0 0 0 0 30.5157
0.2 0 0 0 0 29.8001
0.205 0 0 0 0 29.1113
0.21 0 0 0 0 28.4475
0.215 0 0 0 0 27.8071
0.22 0 0 0 0 27.1885
0.225 0 0 0 0 26.5903
0.23 0 0 0 0 26.0112
0.235 0 0 0 0 25.4497
0.24 0 0 0 0 24.9047
0.245 0 0 0 0 24.3751
0.25 0 0 0 0 23.8597
0.255 0 0 0 0 23.3575
0.26 0 0 0 0 22.8675
0.265 0 0 0 0 22.3888
0.27 0 0 0 0 21.9207
0.275 0 0 0 0 21.4622
0.28 0 0 0 0 21.0126
0.285 0 0 0 0 20.5712
0.29 0 0 0 0 20.1374
0.295 0 0 0 0 19.7106
0.3 0 0 0 0 19.2901
0.305 0 0 0 0 18.8756
0.31 0 0 0 0 18.4664
0.315 0 0 0 0 18.0621
0.32 0 0 0 0 17.6624
0.325 0 0 0 0 17.2669
0.33 0 0 0 0 16.8752
0.335 0 0 0 0 16.4871
0.34 0 0 0 0 16.1023
0.345 0 0 0 0 15.7205
0.35 0 0 0 0 15.3416
0.355 0 0 0 0 14.9653
0.36 0 0 0 0 14.5916
0.365 0 0 0 0 14.2204
0.37 0 0 0 0 13.8514
0.375 0 0 0 0 13.4847
0.38 0 0 0 0 13.1203
0.385 0 0 0 0 12.7581
0.39 0 0 0 0 12.3981
0.395 0 0 0 0 12.0403
0.4 0 0 0 0 11.6849
0.405 0 0 0 0 11.3318
0.41 0 0 0 0 10.9812
0.415 0 0 0 0 10.6332
0.42 0 0 0 0 10.2878
0.425 0 0 0 0 9.9453
0.43 0 0 0 0 9.60573
0.435 0 0 0 0 9.26929
0.44 0 0 0 0 8.93615
0.445 0 0 0 0 8.60649
0.45 0 0 0 0 8.2805
0.455 0 0 0 0 7.95838
0.46 0 0 0 0 7.64033
0.465 0 0 0 0 7.32655
0.47 0 0 0 0 7.01725
0.475 0 0 0 0 6.71264
0.48 0 0 0 0 6.41293
0.485 0 0 0 0 6.11832
0.49 0 0 0 0 5.82902
0.495 0 0 0 0 5.54522
0.5 0 0 0 0 5.26713
0.505 0 0 0 0 4.99491
0.51 0 0 0 0 4.72875
0.515 0 0 0 0 4.46881
0.52 0 0 0 0 4.21525
0.525 0 0 0 0 3.96821
0.53 0 0 0 0 3.72782
0.535 0 0 0 0 3.4942
0.54 0 0 0 0 3.26744
0.545 0 0 0 0 3.04764
0.55 0 0 0 0 2.83487
0.555 0 0 0 0 2.62918
0.56 0 0 0 0 2.43061
0.565 0 0 0 0 2.23918
0.57 0 0 0 0 2.0549
0.575 0 0 0 0 1.87775
0.58 0 0 0 0 1.70772
0.585 0 0 0 0 1.54477
0.59 0 0 0 0 1.38882
0.595 0 0 0 0 1.23982
0.6 0 0 0 0 1.09767
0.605 0 0 0 0 0.962287
0.61 0 0 0 0 0.833549
0.615 0 0 0 0 0.711335
0.62 0 0 0 0 0.595513
0.625 0 0 0 0 0.485938
0.63 0 0 0 0 0.382459
0.635 0 0 0 0 0.284914
0.64 0 0 0 0 0.193138
0.645 0 0 0 0 0.106956
0.65 0 0 0 0 0.0261915
0.655 0 0 0 0 -0.049339
0.66 0 0 0 0 -0.119821
0.665 0 0 0 0 -0.185442
0.67 0 0 0 0 -0.246394
0.675 0 0 0 0 -0.302866
0.68 0 0 0 0 -0.355052
0.685 0 0 0 0 -0.403144
0.69 0 0 0 0 -0.447334
0.695 0 0 0 0 -0.487814
0.7 0 0 0 0 -0.524776
0.705 0 0 0 0 -0.55841
0.71 0 0 0 0 -0.588906
0.715 0 0 0 0 -0.616452
0.72 0 0 0 0 -0.641234
0.725 0 0 0 0 -0.663436
0.73 0 0 0 0 -0.683239
0.735 0 0 0 0 -0.700821
0.74 0 0 0 0 -0.716356
0.745 0 0 0 0 -0.730011
0.75 0 0 0 0 -0.741948
0.755 0 0 0 0 -0.752321
0.76 0 0 0 0 -0.761276
0.765 0 0 0 0 -0.768945
0.77 0 0 0 0 -0.775451
0.775 0 0 0 0 -0.780902
0.78 0 0 0 0 -0.785393
0.785 0 0 0 0 -0.789001
0.79 0 0 0 0 -0.791785
0.795 0 0 0 0 -0.79379
0.8 0 0 0 0 -0.795038
0.805 0 0 0 0 -0.795535
0.81 0 0 0 0 -0.795268
0.815 0 0 0 0 -0.794205
0.82 0 0 0 0 -0.792299
0.825 0 0 0 0 -0.789483
0.83 0 0 0 0 -0.785681
0.835 0 0 0 0 -0.7808
0.84 0 0 0 0 -0.77474
0.845 0 0 0 0 -0.767394
0.85 0 0 0 0 -0.758647
0.855 0 0 0 0 -0.748388
0.86 0 0 0 0 -0.736504
0.865 0 0 0 0 -0.722891
0.87 0 0 0 0 -0.70745
0.875 0 0 0 0 -0.690101
0.88 0 0 0 0 -0.670775
0.885 0 0 0 0 -0.649427
0.89 0 0 0 0 -0.626034
0.895 0 0 0 0 -0.600601
0.9 0 0 0 0 -0.573163
0.905 0 0 0 0 -0.543787
0.91 0 0 0 0 -0.512577
0.915 0 0 0 0 -0.479673
0.92 0 0 0 0 -0.445256
0.925 0 0 0 0 -0.409546
0.93 0 0 0 0 -0.372807
0.935 0 0 0 0 -0.335343
0.94 0 0 0 0 -0.297502
0.945 0 0 0 0 -0.259675
0.95 0 0 0 0 -0.222294
0.955 0 0 0 0 -0.185836
0.96 0 0 0 0 -0.150815
0.965 0 0 0 0 -0.117791
0.97 0 0 0 0 -0.0873606
0.975 0 0 0 0 -0.0601558
0.98 0 0 0 0 -0.0368363
0.985 0 0 0 0 -0.0180677
0.99 0 0 0 0 -0.00447213
0.995 0 0 0 0 0.00348868
1 0 0 0 0 0.00578921
0 0.005 0 0 0 0
0.005 0.005 0 0 0 0
0.01 0.005 0 0 0 73.7283
0.015 0.005 0 0 0 62.0757
0.02 0.005 0 0 0 45.7377
0.025 0.005 0 0 0 33.9771
0.03 0.005 0 0 0 26.0784
0.035 0.005 0 0 0 20.6412
0.04 0.005 0 0 0 16.7254
0.045 0.005 0 0 0 13.782
0.05 0.005 0 0 0 11.4933
0.055 0.005 0 0 0 9.66916
0.06 0.005 0 0 0 8.1902
0.065 0.005 0 0 0 6.97701
0.07 0.005 0 0 0 5.97406
0.075 0.005 0 0 0 5.14071
0.08 0.005 0 0 0 4.44611
0.085 0.005 0 0 0 3.86616
0.09 0.005 0 0 0 3.3816
0.095 0.005 0 0 0 2.97683
0.1 0.005 0 0 0 2.63905
0.105 0.005 0 0 0 2.35769
0.11 0.005 0 0 0 2.12396
0.115 0.005 0 0 0 1.93054
0.12 0.005 0 0 0 1.77131
0.125 0.005 0 0 0 1.64115
0.13 0.005 0 0 0 1.5358
0.135 0.005 0 0 0 1.45166
0.14 0.005 0 0 0 1.38573
0.145 0.005 0 0 0 1.3355
0.15 0.005 0 0 0 1.29888
0.155 0.005 0 0 0 1.27411
0.16 0.005 0 0 0 1.25971
0.165 0.005 0 0 0 1.25447
0.17 0.005 0 0 0 1.25736
0.175 0.005 0 0 0 1.26754
0.18 0.005 0 0 0 1.28428
0.185 0.005 0 0 0 1.30699
0.19 0.005 0 0 0 1.33518
0.195 0.005 0 0 0 1.36842
0.2 0.005 0 0 0 1.40638
0.205 0.005 0 0 0 1.44876
0.21 0.005 0 0 0 1.4953
0.215 0.005 0 0 0 1.5458
0.22 0.005 0 0 0 1.60007
0.225 0.005 0 0 0 1.65795
0.23 0.005 0 0 0 1.7193
0.235 0.005 0 0 0 1.78399
0.24 0.005 0 0 0 1.8519
0.245 0.005 0 0 0 1.92293
0.25 0.005 0 0 0 1.99697
0.255 0.005 0 0 0 2.07392
0.26 0.005 0 0 0 2.15369
0.265 0.005 0 0 0 2.23617
0.27 0.005 0 0 0 2.32128
0.275 0.005 0 0 0 2.4089
0.28 0.005 0 0 0 2.49893
0.285 0.005 0 0 0 2.59127
0.29 0.005 0 0 0 2.68581
0.295 0.005 0 0 0 2.78243
0.3 0.005 0 0 0 2.88101
0.305 0.005 0 0 0 2.98143
0.31 0.005 0 0 0 3.08355
0.315 0.005 0 0 0 3.18725
0.32 0.005 0 0 0 3.29237
0.325 0.005 0 0 0 3.39877
0.33 0.005 0 0 0 3.5063
0.335 0.005 0 0 0 3.6148
0.34 0.005 0 0 0 3.7241
0.345 0.005 0 0 0 3.83403
0.35 0.005 0 0 0 3.94442
0.355 0.005 0 0 0 4.05509
0.36 0.005 0 0 0 4.16584
0.365 0.005 0 0 0 4.27649
0.37 0.005 0 0 0 4.38685
0.375 0.005 0 0 0 4.49671
0.38 0.005 0 0 0 4.60588
0.385 0.005 0 0 0 4.71414
0.39 0.005 0 0 0 4.82128
0.395 0.005 0 0 0 4.9271
0.4 0.005 0 0 0 5.03138
0.405 0.005 0 0 0 5.13391
0.41 0.005 0 0 0 5.23446
0.415 0.005 0 0 0 5.33282
0.42 0.005 0 0 0 5.42878
0.425 0.005 0 0 0 5.52211
0.43 0.005 0 0 0 5.6126
0.435 0.005 0 0 0 5.70004
0.44 0.005 0 0 0 5.78421
0.445 0.005 0 0 0 5.86489
0.45 0.005 0 0 0 5.94189
0.455 0.005 0 0 0 6.01499
0.46 0.005 0 0 0 6.08401
0.465 0.005 0 0 0 6.14874
0.47 0.005 0 0 0 6.209
0.475 0.005 0 0 0 6.26459
0.48 0.005 0 0 0 6.31536
0.485 0.005 0 0 0 6.36112
0.49 0.005 0 0 0 6.40172
0.495 0.005 0 0 0 6.437
0.5 0.005 0 0 0 6.46682
0.505 0.005 0 0 0 6.49105
0.51 0.005 0 0 0 6.50957
0.515 0.005 0 0 0 6.52226
0.52 0.005 0 0 0 6.52903
0.525 0.005 0 0 0 6.52977
0.53 0.005 0 0 0 6.52443
0.535 0.005 0 0 0 6.51294
0.54 0.005 0 0 0 6.49525
0.545 0.005 0 0 0 6.47132
0.55 0.005 0 0 0 6.44114
0.555 0.005 0 0 0 6.4047
0.56 0.005 0 0 0 6.36202
0.565 0.005 0 0 0 6.31312
0.57 0.005 0 0 0 6.25804
0.575 0.005 0 0 0 6.19685
0.58 0.005 0 0 0 6.12962
0.585 0.005 0 0 0 6.05644
0.59 0.005 0 0 0 5.97743
0.595 0.005 0 0 0 5.89271
0.6 0.005 0 0 0 5.80242
0.605 0.005 0 0 0 5.70673
0.61 0.005 0 0 0 5.6058
0.615 0.005 0 0 0 5.49985
0.62 0.005 0 0 0 5.38906
0.625 0.005 0 0 0 5.27367
0.63 0.005 0 0 0 5.15391
0.635 0.005 0 0 0 5.03004
0.64 0.005 0 0 0 4.90232
0.645 0.005 0 0 0 4.77104
0.65 0.005 0 0 0 4.63647
0.655 0.005 0 0 0 4.49892
0.66 0.005 0 0 0 4.35871
0.665 0.005 0 0 0 4.21614
0.67 0.005 0 0 0 4.07156
0.675 0.005 0 0 0 3.92529
0.68 0.005 0 0 0 3.77767
0.685 0.005 0 0 0 3.62903
0.69 0.005 0 0 0 3.47974
0.695 0.005 0 0 0 3.33012
0.7 0.005 0 0 0 3.18053
0.705 0.005 0 0 0 3.0313
0.71 0.005 0 0 0 2.88278
0.715 0.005 0 0 0 2.73529
0.72 0.005 0 0 0 2.58917
0.725 0.005 0 0 0 2.44473
0.73 0.005 0 0 0 2.30228
0.735 0.005 0 0 0 2.16212
0.74 0.005 0 0 0 2.02454
0.745 0.005 0 0 0 1.88981
0.75 0.005 0 0 0 1.75819
0.755 0.005 0 0 0 1.62992
0.76 0.005 0 0 0 1.50524
0.765 0.005 0 0 0 1.38434
0.77 0.005 0 0 0 1.26742
0.775 0.005 0 0 0 1.15466
0.78 0.005 0 0 0 1.04621
0.785 0.005 0 0 0 0.942207
0.79 0.005 0 0 0 0.84276
0.795 0.005 0 0 0 0.747968
0.8 0.005 0 0 0 0.657905
0.805 0.005 0 0 0 0.572628
0.81 0.005 0 0 0 0.492172
0.815 0.005 0 0 0 0.416555
0.82 0.005 0 0 0 0.345775
0.825 0.005 0 0 0 0.279813
0.83 0.005 0 0 0 0.218634
0.835 0.005 0 0 0 0.162184
0.84 0.005 0 0 0 0.110395
0.845 0.005 0 0 0 0.0631857
0.85 0.005 0 0 0 0.0204596
0.855 0.005 0 0 0 -0.017891
0.86 0.005 0 0 0 -0.0519856
0.865 0.005 0 0 0 -0.0819532
0.87 0.005 0 0 0 -0.107932
0.875 0.005 0 0 0 -0.130069
0.88 0.005 0 0 0 -0.148515
0.885 0.005 0 0 0 -0.163431
0.89 0.005 0 0 0 -0.17498
0.895 0.005 0 0 0 -0.18333
0.9 0.005 0 0 0 -0.188652
0.905 0.005 0 0 0 -0.191123
0.91 0.005 0 0 0 -0.19092
0.915 0.005 0 0 0 -0.188225
0.92 0.005 0 0 0 -0.183225
0.925 0.005 0 0 0 -0.176108
0.93 0.005 0 0 0 -0.167074
0.935 0.005 0 0 0 -0.156326
0.94 0.005 0 0 0 -0.144081
0.945 0.005 0 0 0 -0.130569
0.95 0.005 0 0 0 -0.116041
0.955 0.005 0 0 0 -0.100773
0.96 0.005 0 0 0 -0.0850714
0.965 0.005 0 0 0 -0.069287
0.97 0.005 0 0 0 -0.0538222
0.975 0.005 0 0 0 -0.039146
0.98 0.005 0 0 0 -0.0258066
0.985 0.005 0 0 0 -0.0144396
0.99 0.005 0 0 0 -0.00575316
0.995 0.005 0 0 0 -0.0004377
1 0.005 0 0 0 0.00115578
0 0.01 0 0 0.00115578 0
0.005 0.01 0 0 0 -326.272
0.01 0.01 -0.18005 0.0775946 -0.000921604 -44.399
0.015 0.01 -0.184882 -0.0349883 -0.000775946 9.53442
0.02 0.01 -0.156422 -0.0351232 -0.000571721 19.1197
0.025 0.01 -0.127594 -0.0245741 -0.000424714 18.9916
0.03 0.01 -0.104177 -0.0166699 -0.000325981 16.8229
0.035 0.01 -0.0859192 -0.0116913 -0.000258015 14.4873
0.04 0.01 -0.0716314 -0.00857394 -0.000209068 12.4133
0.045 0.01 -0.0602748 -0.00654021 -0.000172275 10.6552
0.05 0.01 -0.0510991 -0.00514108 -0.000143666 9.17871
0.055 0.01 -0.0435835 -0.00412883 -0.000120864 7.93683
0.06 0.01 -0.0373638 -0.00336518 -0.000102378 6.88822
0.065 0.01 -0.0321788 -0.00277017 -8.72126e-05 5.99962
0.07 0.01 -0.0278349 -0.00229538 -7.46757e-05 5.2447
0.075 0.01 -0.0241844 -0.00190994 -6.42589e-05 4.60241
0.08 0.01 -0.0211112 -0.00159319 -5.55764e-05 4.05571
0.085 0.01 -0.0185224 -0.00133064 -4.83269e-05 3.59052
0.09 0.01 -0.0163421 -0.00111166 -4.227e-05 3.19513
0.095 0.01 -0.0145074 -0.00092818 -3.72104e-05 2.85964
0.1 0.01 -0.0129663 -0.000773923 -3.29882e-05 2.57567
0.105 0.01 -0.0116748 -0.000643867 -2.94711e-05 2.33605
0.11 0.01 -0.0105962 -0.000533944 -2.65495e-05 2.13468
0.115 0.01 -0.00969938 -0.000440817 -2.41317e-05 1.96631
0.12 0.01 -0.0089581 -0.000361728 -2.21413e-05 1.82648
0.125 0.01 -0.0083502 -0.000294384 -2.05144e-05 1.71133
0.13 0.01 -0.00785695 -0.00023687 -1.91975e-05 1.61759
0.135 0.01 -0.00746251 -0.000187586 -1.81457e-05 1.54246
0.14 0.01 -0.00715353 -0.00014519 -1.73216e-05 1.48354
0.145 0.01 -0.00691873 -0.000108558 -1.66938e-05 1.43879
0.15 0.01 -0.00674858 -7.67451e-05 -1.6236e-05 1.40648
0.155 0.01 -0.00663508 -4.89609e-05 -1.59263e-05 1.38512
0.16 0.01 -0.00657147 -2.45419e-05 -1.57464e-05 1.37346
0.165 0.01 -0.00655207 -2.9326e-06 -1.56809e-05 1.37042
0.17 0.01 -0.0065721 1.63318e-05 -1.57171e-05 1.37511
0.175 0.01 -0.00662753 3.36395e-05 -1.58442e-05 1.38676
0.18 0.01 -0.00671498 4.93141e-05 -1.60534e-05 1.4047
0.185 0.01 -0.0068316 6.36249e-05 -1.63373e-05 1.42839
0.19 0.01 -0.00697499 7.67952e-05 -1.66897e-05 1.45735
0.195 0.01 -0.00714313 8.90094e-05 -1.71053e-05 1.49118
0.2 0.01 -0.00733428 0.00010042 -1.75798e-05 1.52954
0.205 0.01 -0.00754699 0.00011115 -1.81095e-05 1.57212
0.21 0.01 -0.00778 0.000121303 -1.86913e-05 1.61868
0.215 0.01 -0.00803223 0.000130959 -1.93225e-05 1.66898
0.22 0.01 -0.00830273 0.000140186 -2.00009e-05 1.72283
0.225 0.01 -0.00859067 0.000149035 -2.07243e-05 1.78005
0.23 0.01 -0.00889531 0.000157547 -2.14912e-05 1.8405
0.235 0.01 -0.00921596 0.000165753 -2.22998e-05 1.90401
0.24 0.01 -0.00955202 0.000173678 -2.31487e-05 1.97047
0.245 0.01 -0.00990289 0.000181338 -2.40366e-05 2.03973
0.25 0.01 -0.010268 0.000188744 -2.49621e-05 2.11169
0.255 0.01 -0.0106468 0.000195902 -2.5924e-05 2.18622
0.26 0.01 -0.0110389 0.000202815 -2.69211e-05 2.26322
0.265 0.01 -0.0114436 0.000209483 -2.79522e-05 2.34256
0.27 0.01 -0.0118604 0.000215902 -2.9016e-05 2.42413
0.275 0.01 -0.0122888 0.000222067 -3.01112e-05 2.50783
0.28 0.01 -0.0127282 0.000227969 -3.12366e-05 2.59352
0.285 0.01 -0.0131782 0.0002336 -3.23909e-05 2.6811
0.29 0.01 -0.013638 0.000238948 -3.35726e-05 2.77044
0.295 0.01 -0.0141072 0.000244002 -3.47804e-05 2.86142
0.3 0.01 -0.014585 0.00024875 -3.60126e-05 2.9539
0.305 0.01 -0.0150708 0.000253179 -3.72679e-05 3.04775
0.31 0.01 -0.015564 0.000257274 -3.85444e-05 3.14284
0.315 0.01 -0.0160639 0.000261021 -3.98406e-05 3.23902
0.32 0.01 -0.0165697 0.000264406 -4.11546e-05 3.33615
0.325 0.01 -0.0170807 0.000267415 -4.24847e-05 3.43408
0.33 0.01 -0.0175962 0.000270033 -4.38288e-05 3.53266
0.335 0.01 -0.0181153 0.000272246 -4.5185e-05 3.63172
0.34 0.01 -0.0186372 0.00027404 -4.65513e-05 3.73111
0.345 0.01 -0.0191611 0.000275401 -4.79254e-05 3.83065
0.35 0.01 -0.0196862 0.000276316 -4.93053e-05 3.93019
0.355 0.01 -0.0202115 0.000276773 -5.06886e-05 4.02954
0.36 0.01 -0.0207361 0.000276758 -5.2073e-05 4.12854
0.365 0.01 -0.0212591 0.000276262 -5.34562e-05 4.227
0.37 0.01 -0.0217796 0.000275273 -5.48356e-05 4.32474
0.375 0.01 -0.0222966 0.000273781 -5.62089e-05 4.42159
0.38 0.01 -0.0228092 0.000271777 -5.75735e-05 4.51735
0.385 0.01 -0.0233164 0.000269255 -5.89267e-05 4.61185
0.39 0.01 -0.0238171 0.000266206 -6.0266e-05 4.70489
0.395 0.01 -0.0243104 0.000262624 -6.15888e-05 4.79629
0.4 0.01 -0.0247953 0.000258506 -6.28923e-05 4.88586
0.405 0.01 -0.0252708 0.000253847 -6.41739e-05 4.97342
0.41 0.01 -0.0257358 0.000248645 -6.54308e-05 5.05877
0.415 0.01 -0.0261894 0.000242899 -6.66603e-05 5.14174
0.42 0.01 -0.0266306 0.000236609 -6.78598e-05 5.22213
0.425 0.01 -0.0270583 0.000229777 -6.90264e-05 5.29978
0.43 0.01 -0.0274716 0.000222405 -7.01576e-05 5.37449
0.435 0.01 -0.0278694 0.000214498 -7.12505e-05 5.44609
0.44 0.01 -0.0282509 0.000206061 -7.23026e-05 5.51442
0.445 0.01 -0.0286151 0.000197102 -7.33112e-05 5.5793
0.45 0.01 -0.028961 0.000187628 -7.42736e-05 5.64056
0.455 0.01 -0.0292877 0.00017765 -7.51875e-05 5.69804
0.46 0.01 -0.0295944 0.000167179 -7.60502e-05 5.7516
0.465 0.01 -0.0298802 0.000156229 -7.68593e-05 5.80108
0.47 0.01 -0.0301442 0.000144814 -7.76125e-05 5.84634
0.475 0.01 -0.0303856 0.00013295 -7.83074e-05 5.88725
0.48 0.01 -0.0306038 0.000120654 -7.8942e-05 5.92366
0.485 0.01 -0.0307979 0.000107946 -7.9514e-05 5.95546
0.49 0.01 -0.0309673 9.48474e-05 -8.00215e-05 5.98255
0.495 0.01 -0.0311113 8.13792e-05 -8.04625e-05 6.0048
0.5 0.01 -0.0312293 6.75656e-05 -8.08353e-05 6.02212
0.505 0.01 -0.0313208 5.34321e-05 -8.11382e-05 6.03442
0.51 0.01 -0.0313853 3.90053e-05 -8.13697e-05 6.04163
0.515 0.01 -0.0314223 2.43137e-05 -8.15283e-05 6.04368
0.52 0.01 -0.0314313 9.38688e-06 -8.16129e-05 6.0405
0.525 0.01 -0.0314122 -5.74392e-06 -8.16222e-05 6.03205
0.53 0.01 -0.0313645 -2.10462e-05 -8.15555e-05 6.0183
0.535 0.01 -0.0312881 -3.64862e-05 -8.14118e-05 5.9992
0.54 0.01 -0.0311828 -5.20289e-05 -8.11906e-05 5.97476
0.545 0.01 -0.0310485 -6.7638e-05 -8.08915e-05 5.94496
0.55 0.01 -0.0308852 -8.32762e-05 -8.05143e-05 5.90981
0.555 0.01 -0.0306929 -9.89052e-05 -8.00588e-05 5.86934
0.56 0.01 -0.0304718 -0.000114486 -7.95253e-05 5.82359
0.565 0.01 -0.030222 -0.000129978 -7.8914e-05 5.77258
0.57 0.01 -0.0299437 -0.000145341 -7.82255e-05 5.7164
0.575 0.01 -0.0296374 -0.000160534 -7.74606e-05 5.65509
0.58 0.01 -0.0293034 -0.000175514 -7.66203e-05 5.58876
0.585 0.01 -0.0289421 -0.000190241 -7.57055e-05 5.5175
0.59 0.01 -0.0285542 -0.000204672 -7.47179e-05 5.44141
0.595 0.01 -0.0281403 -0.000218765 -7.36589e-05 5.36063
0.6 0.01 -0.027701 -0.000232479 -7.25303e-05 5.27528
0.605 0.01 -0.0272371 -0.000245772 -7.13341e-05 5.18551
0.61 0.01 -0.0267495 -0.000258603 -7.00726e-05 5.09148
0.615 0.01 -0.0262391 -0.000270934 -6.87481e-05 4.99337
0.62 0.01 -0.0257068 -0.000282725 -6.73633e-05 4.89136
0.625 0.01 -0.0251537 -0.000293938 -6.59209e-05 4.78564
0.63 0.01 -0.024581 -0.000304538 -6.4424e-05 4.67642
0.635 0.01 -0.0239897 -0.000314491 -6.28756e-05 4.5639
0.64 0.01 -0.0233811 -0.000323763 -6.12791e-05 4.44833
0.645 0.01 -0.0227565 -0.000332324 -5.9638e-05 4.32992
0.65 0.01 -0.0221172 -0.000340146 -5.79559e-05 4.20892
0.655 0.01 -0.0214646 -0.000347204 -5.62366e-05 4.08559
0.66 0.01 -0.0208001 -0.000353474 -5.44839e-05 3.96017
0.665 0.01 -0.0201252 -0.000358937 -5.27018e-05 3.83294
0.67 0.01 -0.0194414 -0.000363574 -5.08945e-05 3.70415
0.675 0.01 -0.0187501 -0.000367373 -4.90661e-05 3.57408
0.68 0.01 -0.0180529 -0.000370321 -4.72208e-05 3.44301
0.685 0.01 -0.0173514 -0.000372413 -4.5363e-05 3.31121
0.69 0.01 -0.0166471 -0.000373644 -4.34967e-05 3.17896
0.695 0.01 -0.0159416 -0.000374015 -4.16265e-05 3.04654
0.7 0.01 -0.0152364 -0.000373528 -3.97566e-05 2.91423
0.705 0.01 -0.0145331 -0.000372191 -3.78913e-05 2.78231
0.71 0.01 -0.0138333 -0.000370014 -3.60347e-05 2.65104
0.715 0.01 -0.0131383 -0.000367013 -3.41912e-05 2.52071
0.72 0.01 -0.0124497 -0.000363205 -3.23646e-05 2.39157
0.725 0.01 -0.011769 -0.000358612 -3.05591e-05 2.26388
0.73 0.01 -0.0110976 -0.000353259 -2.87785e-05 2.13789
0.735 0.01 -0.0104367 -0.000347174 -2.70266e-05 2.01386
0.74 0.01 -0.00978781 -0.00034039 -2.53068e-05 1.89201
0.745 0.01 -0.00915205 -0.00033294 -2.36227e-05 1.77256
0.75 0.01 -0.00853063 -0.000324862 -2.19774e-05 1.65574
0.755 0.01 -0.00792468 -0.000316195 -2.03741e-05 1.54174
0.76 0.01 -0.00733523 -0.000306982 -1.88155e-05 1.43075
0.765 0.01 -0.00676326 -0.000297267 -1.73043e-05 1.32295
0.77 0.01 -0.00620964 -0.000287095 -1.58428e-05 1.21851
0.775 0.01 -0.0056752 -0.000276514 -1.44333e-05 1.11757
0.78 0.01 -0.00516063 -0.000265571 -1.30777e-05 1.02026
0.785 0.01 -0.0046666 -0.000254317 -1.17776e-05 0.926711
0.79 0.01 -0.00419363 -0.0002428 -1.05345e-05 0.837017
0.795 0.01 -0.00374218 -0.000231069 -9.3496e-06 0.751269
0.8 0.01 -0.00331263 -0.000219175 -8.22381e-06 0.66954
0.805 0.01 -0.00290526 -0.000207167 -7.15785e-06 0.591886
0.81 0.01 -0.00252025 -0.000195091 -6.15215e-06 0.518349
0.815 0.01 -0.00215773 -0.000182996 -5.20693e-06 0.448955
0.82 0.01 -0.0018177 -0.000170926 -4.32218e-06 0.383714
0.825 0.01 -0.00150011 -0.000158926 -3.49766e-06 0.322623
0.83 0.01 -0.00120483 -0.000147037 -2.73292e-06 0.265664
0.835 0.01 -0.000931644 -0.000135298 -2.02729e-06 0.212805
0.84 0.01 -0.000680266 -0.000123747 -1.37993e-06 0.164001
0.845 0.01 -0.000450348 -0.000112419 -7.89816e-07 0.119196
0.85 0.01 -0.000241476 -0.000101345 -2.5574e-07 0.0783189
0.855 0.01 -5.31794e-05 -9.0556e-05 2.23643e-07 0.0412912
0.86 0.01 0.000115068 -8.00772e-05 6.49825e-07 0.00802204
0.865 0.01 0.000263841 -6.99327e-05 1.02442e-06 -0.0215884
0.87 0.01 0.000393756 -6.01436e-05 1.34916e-06 -0.0476487
0.875 0.01 0.000505473 -5.07282e-05 1.62586e-06 -0.0702753
0.88 0.01 0.000599683 -4.17025e-05 1.85645e-06 -0.0895921
0.885 0.01 0.000677111 -3.30801e-05 2.04289e-06 -0.105729
0.89 0.01 0.000738507 -2.48725e-05 2.18725e-06 -0.118823
0.895 0.01 0.000784648 -1.70899e-05 2.29162e-06 -0.129016
0.9 0.01 0.00081633 -9.74102e-06 2.35816e-06 -0.136454
0.905 0.01 0.000834371 -2.83414e-06 2.38904e-06 -0.141289
0.91 0.01 0.000839609 3.62246e-06 2.3865e-06 -0.143678
0.915 0.01 0.000832903 9.61961e-06 2.35282e-06 -0.143783
0.92 0.01 0.000815133 1.51464e-05 2.29031e-06 -0.141771
0.925 0.01 0.00078721 2.01888e-05 2.20136e-06 -0.137816
0.93 0.01 0.000750076 2.47287e-05 2.08843e-06 -0.1321
0.935 0.01 0.000704718 2.87419e-05 1.95408e-06 -0.124813
0.94 0.01 0.000652174 3.21962e-05 1.80101e-06 -0.116156
0.945 0.01 0.000593554 3.50493e-05 1.63212e-06 -0.106344
0.95 0.01 0.000530055 3.72455e-05 1.45052e-06 -0.0956101
0.955 0.01 0.000462984 3.87126e-05 1.25966e-06 -0.0842042
0.96 0.01 0.000393787 3.93575e-05 1.06339e-06 -0.0724019
0.965 0.01 0.000324082 3.90617e-05 8.66088e-07 -0.0605055
0.97 0.01 0.000255688 3.76763e-05 6.72778e-07 -0.0488471
0.975 0.01 0.000190664 3.50196e-05 4.89326e-07 -0.0377879
0.98 0.01 0.000131326 3.08831e-05 3.22583e-07 -0.02771
0.985 0.01 8.02252e-05 2.50668e-05 1.80495e-07 -0.0189909
0.99 0.01 4.00185e-05 1.75023e-05 7.19145e-08 -0.0119397
0.995 0.01 1.30848e-05 8.63618e-06 5.47122e-09 -0.00665724
1 0.01 5.47731e-07 5.47122e-07 -1.44473e-08 -0.00274951
0 0.015 0 0 -0.000438185 0
0.005 0.015 0 0 0 -255.96
0.01 0.015 -0.152868 0.184882 -0.0018005 -79.2512
0.015 0.015 -0.206273 -0.0236278 -0.00184882 -16.6375
0.02 0.015 -0.204635 -0.0572876 -0.00156422 2.3074
0.025 0.015 -0.18462 -0.0522452 -0.00127594 7.91366
0.03 0.015 -0.161083 -0.041675 -0.00104177 9.23433
0.035 0.015 -0.139014 -0.0325453 -0.000859192 9.09938
0.04 0.015 -0.119707 -0.0256444 -0.000716314 8.47566
0.045 0.015 -0.103204 -0.0205323 -0.000602748 7.7161
0.05 0.015 -0.0891899 -0.0166912 -0.000510991 6.95397
0.055 0.015 -0.0772961 -0.0137353 -0.000435835 6.23914
0.06 0.015 -0.0671886 -0.0114047 -0.000373638 5.58843
0.065 0.015 -0.0585868 -0.00952895 -0.000321788 5.00517
0.07 0.015 -0.0512593 -0.00799442 -0.000278349 4.4872
0.075 0.015 -0.045015 -0.00672366 -0.000241844 4.03017
0.08 0.015 -0.0396953 -0.00566192 -0.000211112 3.62898
0.085 0.015 -0.0351671 -0.00476915 -0.000185224 3.27841
0.09 0.015 -0.031318 -0.00401499 -0.000163421 2.97342
0.095 0.015 -0.0280525 -0.00337579 -0.000145074 2.70928
0.1 0.015 -0.0252893 -0.00283262 -0.000129663 2.48161
0.105 0.015 -0.0229586 -0.00237007 -0.000116748 2.28642
0.11 0.015 -0.021001 -0.00197544 -0.000105962 2.12009
0.115 0.015 -0.0193653 -0.00163811 -9.69938e-05 1.97936
0.12 0.015 -0.0180079 -0.00134918 -8.9581e-05 1.86132
0.125 0.015 -0.0168913 -0.00110115 -8.3502e-05 1.76337
0.13 0.015 -0.0159836 -0.000887686 -7.85694e-05 1.68322
0.135 0.015 -0.0152576 -0.000703412 -7.46251e-05 1.61885
0.14 0.015 -0.0146898 -0.000543783 -7.15353e-05 1.56848
0.145 0.015 -0.0142604 -0.000404947 -6.91872e-05 1.53055
0.15 0.015 -0.0139525 -0.000283641 -6.74858e-05 1.50369
0.155 0.015 -0.0137518 -0.000177106 -6.63508e-05 1.48674
0.16 0.015 -0.0136461 -8.3006e-05 -6.57147e-05 1.47864
0.165 0.015 -0.0136248 6.28714e-07 -6.55207e-05 1.47853
0.17 0.015 -0.0136794 7.54597e-05 -6.5721e-05 1.4856
0.175 0.015 -0.0138022 0.000142884 -6.62753e-05 1.49921
0.18 0.015 -0.013987 0.000204076 -6.71498e-05 1.51876
0.185 0.015 -0.0142283 0.000260018 -6.8316e-05 1.54375
0.19 0.015 -0.0145217 0.000311528 -6.97499e-05 1.57374
0.195 0.015 -0.0148631 0.000359289 -7.14313e-05 1.60835
0.2 0.015 -0.0152492 0.000403865 -7.33428e-05 1.64726
0.205 0.015 -0.0156772 0.000445722 -7.54699e-05 1.69016
0.21 0.015 -0.0161445 0.00048524 -7.78e-05 1.73679
0.215 0.015 -0.016649 0.000522731 -8.03223e-05 1.78694
0.22 0.015 -0.0171888 0.000558444 -8.30273e-05 1.84038
0.225 0.015 -0.0177621 0.00059258 -8.59067e-05 1.89695
0.23 0.015 -0.0183675 0.000625295 -8.89531e-05 1.95645
0.235 0.015 -0.0190034 0.000656712 -9.21596e-05 2.01875
0.24 0.015 -0.0196687 0.000686922 -9.55202e-05 2.08368
0.245 0.015 -0.020362 0.00071599 -9.90288e-05 2.15111
0.25 0.015 -0.0210821 0.000743963 -0.00010268 2.22089
0.255 0.015 -0.021828 0.000770867 -0.000106468 2.29291
0.26 0.015 -0.0225984 0.000796715 -0.000110389 2.36703
0.265 0.015 -0.0233923 0.000821506 -0.000114436 2.44311
0.27 0.015 -0.0242086 0.000845231 -0.000118604 2.52105
0.275 0.015 -0.025046 0.00086787 -0.000122888 2.60069
0.28 0.015 -0.0259035 0.000889396 -0.000127282 2.68193
0.285 0.015 -0.0267798 0.000909776 -0.000131782 2.76462
0.29 0.015 -0.0276738 0.000928974 -0.00013638 2.84864
0.295 0.015 -0.0285842 0.000946948 -0.000141072 2.93384
0.3 0.015 -0.0295096 0.000963654 -0.00014585 3.0201
0.305 0.015 -0.0304489 0.000979045 -0.000150708 3.10727
0.31 0.015 -0.0314005 0.000993073 -0.00015564 3.1952
0.315 0.015 -0.0323631 0.00100569 -0.000160639 3.28377
0.32 0.015 -0.0333353 0.00101684 -0.000165697 3.3728
0.325 0.015 -0.0343155 0.00102648 -0.000170807 3.46217
0.33 0.015 -0.0353023 0.00103456 -0.000175962 3.5517
0.335 0.015 -0.0362939 0.00104103 -0.000181153 3.64126
0.34 0.015 -0.0372889 0.00104584 -0.000186372 3.73067
0.345 0.015 -0.0382855 0.00104895 -0.000191611 3.81978
0.35 0.015 -0.0392822 0.00105031 -0.000196862 3.90844
0.355 0.015 -0.040277 0.00104989 -0.000202115 3.99647
0.36 0.015 -0.0412684 0.00104764 -0.000207361 4.08371
0.365 0.015 -0.0422545 0.00104353 -0.000212591 4.17
0.37 0.015 -0.0432335 0.00103753 -0.000217796 4.25518
0.375 0.015 -0.0442037 0.0010296 -0.000222966 4.33909
0.38 0.015 -0.045163 0.00101972 -0.000228092 4.42154
0.385 0.015 -0.0461098 0.00100788 -0.000233164 4.5024
0.39 0.015 -0.0470421 0.000994044 -0.000238171 4.58148
0.395 0.015 -0.0479581 0.00097821 -0.000243104 4.65863
0.4 0.015 -0.0488558 0.000960365 -0.000247953 4.73369
0.405 0.015 -0.0497335 0.000940506 -0.000252708 4.80651
0.41 0.015 -0.0505893 0.00091863 -0.000257358 4.87693
0.415 0.015 -0.0514212 0.000894744 -0.000261894 4.94479
0.42 0.015 -0.0522275 0.000868856 -0.000266306 5.00995
0.425 0.015 -0.0530064 0.00084098 -0.000270583 5.07226
0.43 0.015 -0.053756 0.000811135 -0.000274716 5.13158
0.435 0.015 -0.0544746 0.000779346 -0.000278694 5.18777
0.44 0.015 -0.0551604 0.000745641 -0.000282509 5.24071
0.445 0.015 -0.0558118 0.000710055 -0.000286151 5.29026
0.45 0.015 -0.0564272 0.000672628 -0.00028961 5.3363
0.455 0.015 -0.0570048 0.000633403 -0.000292877 5.37871
0.46 0.015 -0.0575431 0.000592432 -0.000295944 5.41738
0.465 0.015 -0.0580408 0.000549769 -0.000298802 5.45221
0.47 0.015 -0.0584962 0.000505475 -0.000301442 5.4831
0.475 0.015 -0.058908 0.000459616 -0.000303857 5.50995
0.48 0.015 -0.059275 0.000412263 -0.000306038 5.53268
0.485 0.015 -0.0595958 0.000363492 -0.000307979 5.55122
0.49 0.015 -0.0598694 0.000313385 -0.000309673 5.56549
0.495 0.015 -0.0600947 0.00026203 -0.000311113 5.57543
0.5 0.015 -0.0602706 0.000209517 -0.000312294 5.58098
0.505 0.015 -0.0603964 0.000155943 -0.000313209 5.5821
0.51 0.015 -0.0604711 0.000101412 -0.000313853 5.57875
0.515 0.015 -0.060494 4.60282e-05 -0.000314223 5.5709
0.52 0.015 -0.0604647 -1.00955e-05 -0.000314314 5.55852
0.525 0.015 -0.0603825 -6.68434e-05 -0.000314122 5.54162
0.53 0.015 -0.0602471 -0.000124095 -0.000313645 5.52017
0.535 0.015 -0.0600583 -0.000181727 -0.000312881 5.49419
0.54 0.015 -0.0598157 -0.00023961 -0.000311828 5.46369
0.545 0.015 -0.0595195 -0.000297613 -0.000310485 5.4287
0.55 0.015 -0.0591697 -0.0003556 -0.000308852 5.38925
0.555 0.015 -0.0587664 -0.000413432 -0.000306929 5.34538
0.56 0.015 -0.0583101 -0.000470969 -0.000304718 5.29714
0.565 0.015 -0.0578011 -0.000528069 -0.00030222 5.2446
0.57 0.015 -0.0572401 -0.000584584 -0.000299438 5.18782
0.575 0.015 -0.0566276 -0.000640369 -0.000296374 5.12689
0.58 0.015 -0.0559647 -0.000695277 -0.000293034 5.06189
0.585 0.015 -0.0552522 -0.00074916 -0.000289422 4.99292
0.59 0.015 -0.0544912 -0.000801869 -0.000285543 4.9201
0.595 0.015 -0.053683 -0.000853257 -0.000281403 4.84353
0.6 0.015 -0.0528289 -0.00090318 -0.00027701 4.76334
0.605 0.015 -0.0519304 -0.000951492 -0.000272371 4.67967
0.61 0.015 -0.050989 -0.000998052 -0.000267495 4.59265
0.615 0.015 -0.0500065 -0.00104272 -0.000262391 4.50244
0.62 0.015 -0.0489848 -0.00108537 -0.000257068 4.40919
0.625 0.015 -0.0479257 -0.00112586 -0.000251538 4.31307
0.63 0.015 -0.0468313 -0.00116408 -0.00024581 4.21425
0.635 0.015 -0.0457038 -0.00119989 -0.000239897 4.1129
0.64 0.015 -0.0445455 -0.0012332 -0.000233811 4.00922
0.645 0.015 -0.0433586 -0.0012639 -0.000227565 3.9034
0.65 0.015 -0.0421456 -0.00129189 -0.000221172 3.79562
0.655 0.015 -0.0409091 -0.00131708 -0.000214646 3.68609
0.66 0.015 -0.0396515 -0.00133939 -0.000208002 3.57502
0.665 0.015 -0.0383756 -0.00135876 -0.000201253 3.46261
0.67 0.015 -0.037084 -0.00137513 -0.000194414 3.34908
0.675 0.015 -0.0357795 -0.00138845 -0.000187501 3.23463
0.68 0.015 -0.0344648 -0.00139869 -0.00018053 3.11949
0.685 0.015 -0.0331428 -0.00140582 -0.000173515 3.00388
0.69 0.015 -0.0318162 -0.00140983 -0.000166472 2.88801
0.695 0.015 -0.0304879 -0.00141071 -0.000159416 2.77209
0.7 0.015 -0.0291606 -0.0014085 -0.000152365 2.65636
0.705 0.015 -0.0278372 -0.0014032 -0.000145331 2.54102
0.71 0.015 -0.0265204 -0.00139486 -0.000138333 2.42628
0.715 0.015 -0.0252129 -0.00138353 -0.000131383 2.31237
0.72 0.015 -0.0239174 -0.00136927 -0.000124497 2.19948
0.725 0.015 -0.0226365 -0.00135217 -0.00011769 2.08782
0.73 0.015 -0.0213728 -0.0013323 -0.000110976 1.97759
0.735 0.015 -0.0201287 -0.00130977 -0.000104367 1.86898
0.74 0.015 -0.0189066 -0.00128469 -9.78782e-05 1.76218
0.745 0.015 -0.0177086 -0.00125718 -9.15205e-05 1.65736
0.75 0.015 -0.0165371 -0.00122737 -8.53064e-05 1.55471
0.755 0.015 -0.015394 -0.00119541 -7.92468e-05 1.45438
0.76 0.015 -0.0142812 -0.00116143 -7.33524e-05 1.35652
0.765 0.015 -0.0132005 -0.00112559 -6.76326e-05 1.26129
0.77 0.015 -0.0121536 -0.00108807 -6.20965e-05 1.16881
0.775 0.015 -0.0111419 -0.00104901 -5.6752e-05 1.07922
0.78 0.015 -0.0101668 -0.0010086 -5.16064e-05 0.992633
0.785 0.015 -0.00922947 -0.000967011 -4.6666e-05 0.909145
0.79 0.015 -0.00833096 -0.000924417 -4.19363e-05 0.828854
0.795 0.015 -0.00747214 -0.000880995 -3.74218e-05 0.751838
0.8 0.015 -0.00665375 -0.000836923 -3.31263e-05 0.678168
0.805 0.015 -0.00587633 -0.000792378 -2.90526e-05 0.607902
0.81 0.015 -0.00514031 -0.000747532 -2.52025e-05 0.541084
0.815 0.015 -0.00444594 -0.000702555 -2.15773e-05 0.477748
0.82 0.015 -0.00379331 -0.000657613 -1.8177e-05 0.417916
0.825 0.015 -0.00318238 -0.000612866 -1.50011e-05 0.361599
0.83 0.015 -0.00261297 -0.000568468 -1.20483e-05 0.308793
0.835 0.015 -0.00208474 -0.000524564 -9.31642e-06 0.259488
0.84 0.015 -0.00159723 -0.000481294 -6.80265e-06 0.213659