Title=" Lid Driven Flow"
VARIABLES="X","Y","U","V","psi","xi"
ZONE T= "BOX", I= 201, J=201, F=POINT
0 0 0 0 0.00310904 0
0.005 0 0 0 0 0
0.01 0 0 0 0 0
0.015 0 0 0 0 161.891
0.02 0 0 0 0 176.123
0.025 0 0 0 0 155.602
0.03 0 0 0 0 133.211
0.035 0 0 0 0 115.691
0.04 0 0 0 0 102.836
0.045 0 0 0 0 93.3029
0.05 0 0 0 0 85.9806
0.055 0 0 0 0 80.1363
0.06 0 0 0 0 75.3115
0.065 0 0 0 0 71.2173
0.07 0 0 0 0 67.6661
0.075 0 0 0 0 64.5314
0.08 0 0 0 0 61.725
0.085 0 0 0 0 59.1833
0.09 0 0 0 0 56.8598
0.095 0 0 0 0 54.7193
0.1 0 0 0 0 52.7348
0.105 0 0 0 0 50.8855
0.11 0 0 0 0 49.1548
0.115 0 0 0 0 47.5292
0.12 0 0 0 0 45.9979
0.125 0 0 0 0 44.552
0.13 0 0 0 0 43.1837
0.135 0 0 0 0 41.8867
0.14 0 0 0 0 40.6553
0.145 0 0 0 0 39.4846
0.15 0 0 0 0 38.3704
0.155 0 0 0 0 37.3086
0.16 0 0 0 0 36.2959
0.165 0 0 0 0 35.3288
0.17 0 0 0 0 34.4046
0.175 0 0 0 0 33.5205
0.18 0 0 0 0 32.6739
0.185 0 0 0 0 31.8624
0.19 0 0 0 0 31.0839
0.195 0 0 0 0 30.3362
0.2 0 0 0 0 29.6174
0.205 0 0 0 0 28.9256
0.21 0 0 0 0 28.259
0.215 0 0 0 0 27.616
0.22 0 0 0 0 26.9951
0.225 0 0 0 0 26.3948
0.23 0 0 0 0 25.8135
0.235 0 0 0 0 25.2502
0.24 0 0 0 0 24.7034
0.245 0 0 0 0 24.1721
0.25 0 0 0 0 23.655
0.255 0 0 0 0 23.1512
0.26 0 0 0 0 22.6597
0.265 0 0 0 0 22.1795
0.27 0 0 0 0 21.7098
0.275 0 0 0 0 21.2498
0.28 0 0 0 0 20.7987
0.285 0 0 0 0 20.3558
0.29 0 0 0 0 19.9204
0.295 0 0 0 0 19.4919
0.3 0 0 0 0 19.0698
0.305 0 0 0 0 18.6534
0.31 0 0 0 0 18.2425
0.315 0 0 0 0 17.8364
0.32 0 0 0 0 17.4348
0.325 0 0 0 0 17.0374
0.33 0 0 0 0 16.6437
0.335 0 0 0 0 16.2536
0.34 0 0 0 0 15.8667
0.345 0 0 0 0 15.4828
0.35 0 0 0 0 15.1018
0.355 0 0 0 0 14.7234
0.36 0 0 0 0 14.3476
0.365 0 0 0 0 13.9742
0.37 0 0 0 0 13.6031
0.375 0 0 0 0 13.2344
0.38 0 0 0 0 12.8679
0.385 0 0 0 0 12.5037
0.39 0 0 0 0 12.1418
0.395 0 0 0 0 11.7823
0.4 0 0 0 0 11.4252
0.405 0 0 0 0 11.0705
0.41 0 0 0 0 10.7185
0.415 0 0 0 0 10.3692
0.42 0 0 0 0 10.0228
0.425 0 0 0 0 9.67933
0.43 0 0 0 0 9.33907
0.435 0 0 0 0 9.00216
0.44 0 0 0 0 8.66878
0.445 0 0 0 0 8.33914
0.45 0 0 0 0 8.01343
0.455 0 0 0 0 7.69186
0.46 0 0 0 0 7.37465
0.465 0 0 0 0 7.062
0.47 0 0 0 0 6.75414
0.475 0 0 0 0 6.45129
0.48 0 0 0 0 6.15364
0.485 0 0 0 0 5.86142
0.49 0 0 0 0 5.57483
0.495 0 0 0 0 5.29406
0.5 0 0 0 0 5.01931
0.505 0 0 0 0 4.75075
0.51 0 0 0 0 4.48857
0.515 0 0 0 0 4.23291
0.52 0 0 0 0 3.98392
0.525 0 0 0 0 3.74173
0.53 0 0 0 0 3.50647
0.535 0 0 0 0 3.27824
0.54 0 0 0 0 3.05711
0.545 0 0 0 0 2.84317
0.55 0 0 0 0 2.63646
0.555 0 0 0 0 2.43703
0.56 0 0 0 0 2.24488
0.565 0 0 0 0 2.06004
0.57 0 0 0 0 1.88247
0.575 0 0 0 0 1.71214
0.58 0 0 0 0 1.54902
0.585 0 0 0 0 1.39304
0.59 0 0 0 0 1.24412
0.595 0 0 0 0 1.10217
0.6 0 0 0 0 0.967081
0.605 0 0 0 0 0.838735
0.61 0 0 0 0 0.717003
0.615 0 0 0 0 0.601744
0.62 0 0 0 0 0.492805
0.625 0 0 0 0 0.390026
0.63 0 0 0 0 0.29324
0.635 0 0 0 0 0.202272
0.64 0 0 0 0 0.116941
0.645 0 0 0 0 0.0370612
0.65 0 0 0 0 -0.0375567
0.655 0 0 0 0 -0.107105
0.66 0 0 0 0 -0.171779
0.665 0 0 0 0 -0.231776
0.67 0 0 0 0 -0.287291
0.675 0 0 0 0 -0.338524
0.68 0 0 0 0 -0.385671
0.685 0 0 0 0 -0.428929
0.69 0 0 0 0 -0.468495
0.695 0 0 0 0 -0.504563
0.7 0 0 0 0 -0.537326
0.705 0 0 0 0 -0.566976
0.71 0 0 0 0 -0.593701
0.715 0 0 0 0 -0.617688
0.72 0 0 0 0 -0.639121
0.725 0 0 0 0 -0.658179
0.73 0 0 0 0 -0.675037
0.735 0 0 0 0 -0.689867
0.74 0 0 0 0 -0.702832
0.745 0 0 0 0 -0.71409
0.75 0 0 0 0 -0.723791
0.755 0 0 0 0 -0.732075
0.76 0 0 0 0 -0.739072
0.765 0 0 0 0 -0.744899
0.77 0 0 0 0 -0.749664
0.775 0 0 0 0 -0.753457
0.78 0 0 0 0 -0.756356
0.785 0 0 0 0 -0.758424
0.79 0 0 0 0 -0.759704
0.795 0 0 0 0 -0.760228
0.8 0 0 0 0 -0.760007
0.805 0 0 0 0 -0.75904
0.81 0 0 0 0 -0.757307
0.815 0 0 0 0 -0.754776
0.82 0 0 0 0 -0.751398
0.825 0 0 0 0 -0.747115
0.83 0 0 0 0 -0.741858
0.835 0 0 0 0 -0.735547
0.84 0 0 0 0 -0.728099
0.845 0 0 0 0 -0.719424
0.85 0 0 0 0 -0.709434
0.855 0 0 0 0 -0.698038
0.86 0 0 0 0 -0.685153
0.865 0 0 0 0 -0.670701
0.87 0 0 0 0 -0.654614
0.875 0 0 0 0 -0.636838
0.88 0 0 0 0 -0.617332
0.885 0 0 0 0 -0.596075
0.89 0 0 0 0 -0.573068
0.895 0 0 0 0 -0.548334
0.9 0 0 0 0 -0.521921
0.905 0 0 0 0 -0.493906
0.91 0 0 0 0 -0.464394
0.915 0 0 0 0 -0.433523
0.92 0 0 0 0 -0.401462
0.925 0 0 0 0 -0.368413
0.93 0 0 0 0 -0.334612
0.935 0 0 0 0 -0.30033
0.94 0 0 0 0 -0.265873
0.945 0 0 0 0 -0.231582
0.95 0 0 0 0 -0.197832
0.955 0 0 0 0 -0.165034
0.96 0 0 0 0 -0.133636
0.965 0 0 0 0 -0.104117
0.97 0 0 0 0 -0.076994
0.975 0 0 0 0 -0.052813
0.98 0 0 0 0 -0.0321443
0.985 0 0 0 0 -0.0155636
0.99 0 0 0 0 -0.00360752
0.995 0 0 0 0 0.00333168
1 0 0 0 0 0.00525264
0 0.005 0 0 0 0
0.005 0.005 0 0 0 0
0.01 0.005 0 0 0 73.728
0.015 0.005 0 0 0 62.0658
0.02 0.005 0 0 0 45.7146
0.025 0.005 0 0 0 33.9462
0.03 0.005 0 0 0 26.049
0.035 0.005 0 0 0 20.6223
0.04 0.005 0 0 0 16.724
0.045 0.005 0 0 0 13.802
0.05 0.005 0 0 0 11.5363
0.055 0.005 0 0 0 9.73505
0.06 0.005 0 0 0 8.27745
0.065 0.005 0 0 0 7.08329
0.07 0.005 0 0 0 6.09661
0.075 0.005 0 0 0 5.27662
0.08 0.005 0 0 0 4.59253
0.085 0.005 0 0 0 4.02042
0.09 0.005 0 0 0 3.5413
0.095 0.005 0 0 0 3.13988
0.1 0.005 0 0 0 2.80365
0.105 0.005 0 0 0 2.52236
0.11 0.005 0 0 0 2.28749
0.115 0.005 0 0 0 2.09197
0.12 0.005 0 0 0 1.9299
0.125 0.005 0 0 0 1.79637
0.13 0.005 0 0 0 1.68723
0.135 0.005 0 0 0 1.59905
0.14 0.005 0 0 0 1.5289
0.145 0.005 0 0 0 1.47438
0.15 0.005 0 0 0 1.43342
0.155 0.005 0 0 0 1.40432
0.16 0.005 0 0 0 1.38563
0.165 0.005 0 0 0 1.37614
0.17 0.005 0 0 0 1.37483
0.175 0.005 0 0 0 1.38085
0.18 0.005 0 0 0 1.39348
0.185 0.005 0 0 0 1.4121
0.19 0.005 0 0 0 1.43621
0.195 0.005 0 0 0 1.46537
0.2 0.005 0 0 0 1.49921
0.205 0.005 0 0 0 1.53741
0.21 0.005 0 0 0 1.5797
0.215 0.005 0 0 0 1.62586
0.22 0.005 0 0 0 1.67567
0.225 0.005 0 0 0 1.72896
0.23 0.005 0 0 0 1.78556
0.235 0.005 0 0 0 1.84533
0.24 0.005 0 0 0 1.90814
0.245 0.005 0 0 0 1.97386
0.25 0.005 0 0 0 2.04238
0.255 0.005 0 0 0 2.11358
0.26 0.005 0 0 0 2.18735
0.265 0.005 0 0 0 2.26358
0.27 0.005 0 0 0 2.34217
0.275 0.005 0 0 0 2.423
0.28 0.005 0 0 0 2.50597
0.285 0.005 0 0 0 2.59095
0.29 0.005 0 0 0 2.67784
0.295 0.005 0 0 0 2.76651
0.3 0.005 0 0 0 2.85683
0.305 0.005 0 0 0 2.94869
0.31 0.005 0 0 0 3.04194
0.315 0.005 0 0 0 3.13646
0.32 0.005 0 0 0 3.23209
0.325 0.005 0 0 0 3.32869
0.33 0.005 0 0 0 3.42611
0.335 0.005 0 0 0 3.52419
0.34 0.005 0 0 0 3.62277
0.345 0.005 0 0 0 3.72168
0.35 0.005 0 0 0 3.82077
0.355 0.005 0 0 0 3.91984
0.36 0.005 0 0 0 4.01872
0.365 0.005 0 0 0 4.11723
0.37 0.005 0 0 0 4.21519
0.375 0.005 0 0 0 4.3124
0.38 0.005 0 0 0 4.40868
0.385 0.005 0 0 0 4.50383
0.39 0.005 0 0 0 4.59766
0.395 0.005 0 0 0 4.68997
0.4 0.005 0 0 0 4.78057
0.405 0.005 0 0 0 4.86925
0.41 0.005 0 0 0 4.95582
0.415 0.005 0 0 0 5.04007
0.42 0.005 0 0 0 5.12183
0.425 0.005 0 0 0 5.20088
0.43 0.005 0 0 0 5.27703
0.435 0.005 0 0 0 5.3501
0.44 0.005 0 0 0 5.41989
0.445 0.005 0 0 0 5.48623
0.45 0.005 0 0 0 5.54894
0.455 0.005 0 0 0 5.60783
0.46 0.005 0 0 0 5.66274
0.465 0.005 0 0 0 5.7135
0.47 0.005 0 0 0 5.75997
0.475 0.005 0 0 0 5.80198
0.48 0.005 0 0 0 5.8394
0.485 0.005 0 0 0 5.8721
0.49 0.005 0 0 0 5.89994
0.495 0.005 0 0 0 5.92281
0.5 0.005 0 0 0 5.9406
0.505 0.005 0 0 0 5.95322
0.51 0.005 0 0 0 5.96059
0.515 0.005 0 0 0 5.96262
0.52 0.005 0 0 0 5.95926
0.525 0.005 0 0 0 5.95046
0.53 0.005 0 0 0 5.93617
0.535 0.005 0 0 0 5.91638
0.54 0.005 0 0 0 5.89106
0.545 0.005 0 0 0 5.86024
0.55 0.005 0 0 0 5.82391
0.555 0.005 0 0 0 5.7821
0.56 0.005 0 0 0 5.73487
0.565 0.005 0 0 0 5.68227
0.57 0.005 0 0 0 5.62437
0.575 0.005 0 0 0 5.56126
0.58 0.005 0 0 0 5.49304
0.585 0.005 0 0 0 5.41982
0.59 0.005 0 0 0 5.34174
0.595 0.005 0 0 0 5.25893
0.6 0.005 0 0 0 5.17155
0.605 0.005 0 0 0 5.07977
0.61 0.005 0 0 0 4.98378
0.615 0.005 0 0 0 4.88377
0.62 0.005 0 0 0 4.77994
0.625 0.005 0 0 0 4.67251
0.63 0.005 0 0 0 4.56171
0.635 0.005 0 0 0 4.44778
0.64 0.005 0 0 0 4.33097
0.645 0.005 0 0 0 4.21152
0.65 0.005 0 0 0 4.08971
0.655 0.005 0 0 0 3.96579
0.66 0.005 0 0 0 3.84005
0.665 0.005 0 0 0 3.71277
0.67 0.005 0 0 0 3.58421
0.675 0.005 0 0 0 3.45467
0.68 0.005 0 0 0 3.32444
0.685 0.005 0 0 0 3.19378
0.69 0.005 0 0 0 3.063
0.695 0.005 0 0 0 2.93237
0.7 0.005 0 0 0 2.80217
0.705 0.005 0 0 0 2.67266
0.71 0.005 0 0 0 2.54413
0.715 0.005 0 0 0 2.41683
0.72 0.005 0 0 0 2.29101
0.725 0.005 0 0 0 2.16692
0.73 0.005 0 0 0 2.04479
0.735 0.005 0 0 0 1.92484
0.74 0.005 0 0 0 1.8073
0.745 0.005 0 0 0 1.69237
0.75 0.005 0 0 0 1.58022
0.755 0.005 0 0 0 1.47104
0.76 0.005 0 0 0 1.36499
0.765 0.005 0 0 0 1.26222
0.77 0.005 0 0 0 1.16285
0.775 0.005 0 0 0 1.06702
0.78 0.005 0 0 0 0.974817
0.785 0.005 0 0 0 0.886336
0.79 0.005 0 0 0 0.80165
0.795 0.005 0 0 0 0.720818
0.8 0.005 0 0 0 0.643884
0.805 0.005 0 0 0 0.570878
0.81 0.005 0 0 0 0.501816
0.815 0.005 0 0 0 0.4367
0.82 0.005 0 0 0 0.375521
0.825 0.005 0 0 0 0.318253
0.83 0.005 0 0 0 0.264863
0.835 0.005 0 0 0 0.215303
0.84 0.005 0 0 0 0.169518
0.845 0.005 0 0 0 0.127438
0.85 0.005 0 0 0 0.0889892
0.855 0.005 0 0 0 0.0540863
0.86 0.005 0 0 0 0.0226376
0.865 0.005 0 0 0 -0.00545571
0.87 0.005 0 0 0 -0.0302985
0.875 0.005 0 0 0 -0.0520009
0.88 0.005 0 0 0 -0.0706776
0.885 0.005 0 0 0 -0.0864476
0.89 0.005 0 0 0 -0.0994331
0.895 0.005 0 0 0 -0.10976
0.9 0.005 0 0 0 -0.117555
0.905 0.005 0 0 0 -0.122951
0.91 0.005 0 0 0 -0.126079
0.915 0.005 0 0 0 -0.127077
0.92 0.005 0 0 0 -0.126083
0.925 0.005 0 0 0 -0.12324
0.93 0.005 0 0 0 -0.118697
0.935 0.005 0 0 0 -0.112608
0.94 0.005 0 0 0 -0.105137
0.945 0.005 0 0 0 -0.0964597
0.95 0.005 0 0 0 -0.0867649
0.955 0.005 0 0 0 -0.0762627
0.96 0.005 0 0 0 -0.0651884
0.965 0.005 0 0 0 -0.0538104
0.97 0.005 0 0 0 -0.0424394
0.975 0.005 0 0 0 -0.03144
0.98 0.005 0 0 0 -0.0212437
0.985 0.005 0 0 0 -0.0123593
0.99 0.005 0 0 0 -0.00537045
0.995 0.005 0 0 0 -0.000879012
1 0.005 0 0 0 0.000722243
0 0.01 0 0 0.000722243 0
0.005 0.01 0 0 0 -326.272
0.01 0.01 -0.180039 0.0775823 -0.0009216 -44.4074
0.015 0.01 -0.184838 -0.0350167 -0.000775823 9.52502
0.02 0.01 -0.156341 -0.0351496 -0.000571433 19.1132
0.025 0.01 -0.127497 -0.024582 -0.000424327 18.9885
0.03 0.01 -0.104096 -0.0166548 -0.000325613 16.8247
0.035 0.01 -0.0858872 -0.0116563 -0.000257779 14.4967
0.04 0.01 -0.0716721 -0.00852545 -0.000209049 12.4331
0.045 0.01 -0.0604037 -0.00648458 -0.000172525 10.6877
0.05 0.01 -0.0513229 -0.00508365 -0.000144204 9.22509
0.055 0.01 -0.043902 -0.00407355 -0.000121688 7.99755
0.06 0.01 -0.0377715 -0.0033147 -0.000103468 6.96289
0.065 0.01 -0.032667 -0.00272605 -8.85411e-05 6.08725
0.07 0.01 -0.0283928 -0.00225834 -7.62075e-05 5.34388
0.075 0.01 -0.0248005 -0.00188009 -6.59577e-05 4.71152
0.08 0.01 -0.0217738 -0.00157024 -5.74066e-05 4.173
0.085 0.01 -0.0192205 -0.00131403 -5.02552e-05 3.71429
0.09 0.01 -0.0170655 -0.00110067 -4.42662e-05 3.32373
0.095 0.01 -0.0152471 -0.000922056 -3.92484e-05 2.99156
0.1 0.01 -0.0137143 -0.000771894 -3.50456e-05 2.70954
0.105 0.01 -0.0124246 -0.000645206 -3.15294e-05 2.4707
0.11 0.01 -0.0113422 -0.000537987 -2.85935e-05 2.26909
0.115 0.01 -0.0104372 -0.000446976 -2.61495e-05 2.09963
0.12 0.01 -0.00968409 -0.000369495 -2.41237e-05 1.958
0.125 0.01 -0.00906164 -0.000303331 -2.24545e-05 1.84049
0.13 0.01 -0.00855176 -0.000246645 -2.10904e-05 1.74395
0.135 0.01 -0.0081392 -0.000197904 -1.9988e-05 1.66566
0.14 0.01 -0.00781104 -0.00015583 -1.91113e-05 1.60332
0.145 0.01 -0.00755636 -0.000119351 -1.84297e-05 1.55495
0.15 0.01 -0.00736591 -8.7571e-05 -1.79177e-05 1.51888
0.155 0.01 -0.00723189 -5.97371e-05 -1.75539e-05 1.49365
0.16 0.01 -0.00714765 -3.52191e-05 -1.73203e-05 1.47804
0.165 0.01 -0.00710762 -1.34882e-05 -1.72017e-05 1.471
0.17 0.01 -0.00710703 5.89898e-06 -1.71854e-05 1.47164
0.175 0.01 -0.00714186 2.33138e-05 -1.72606e-05 1.4792
0.18 0.01 -0.00720872 3.90671e-05 -1.74185e-05 1.49301
0.185 0.01 -0.00730469 5.34184e-05 -1.76513e-05 1.51251
0.19 0.01 -0.00742731 6.65845e-05 -1.79526e-05 1.53724
0.195 0.01 -0.00757449 7.87453e-05 -1.83171e-05 1.56677
0.2 0.01 -0.00774441 9.00505e-05 -1.874e-05 1.60074
0.205 0.01 -0.00793552 0.000100623 -1.92176e-05 1.63885
0.21 0.01 -0.00814648 0.000110566 -1.97462e-05 1.68082
0.215 0.01 -0.00837612 0.00011996 -2.03232e-05 1.72642
0.22 0.01 -0.00862341 0.000128875 -2.09458e-05 1.77544
0.225 0.01 -0.00888743 0.000137364 -2.16119e-05 1.82768
0.23 0.01 -0.00916735 0.000145471 -2.23194e-05 1.88297
0.235 0.01 -0.00946243 0.00015323 -2.30666e-05 1.94116
0.24 0.01 -0.00977197 0.000160667 -2.38517e-05 2.0021
0.245 0.01 -0.0100953 0.000167801 -2.46733e-05 2.06566
0.25 0.01 -0.0104318 0.000174647 -2.55297e-05 2.1317
0.255 0.01 -0.010781 0.000181214 -2.64197e-05 2.2001
0.26 0.01 -0.0111421 0.000187506 -2.73419e-05 2.27073
0.265 0.01 -0.0115147 0.000193527 -2.82948e-05 2.34348
0.27 0.01 -0.0118982 0.000199275 -2.92771e-05 2.41822
0.275 0.01 -0.0122919 0.000204746 -3.02875e-05 2.49483
0.28 0.01 -0.0126954 0.000209937 -3.13246e-05 2.5732
0.285 0.01 -0.013108 0.000214839 -3.23869e-05 2.6532
0.29 0.01 -0.0135291 0.000219445 -3.3473e-05 2.7347
0.295 0.01 -0.0139581 0.000223745 -3.45813e-05 2.81758
0.3 0.01 -0.0143944 0.00022773 -3.57104e-05 2.9017
0.305 0.01 -0.0148373 0.000231388 -3.68586e-05 2.98695
0.31 0.01 -0.0152862 0.000234708 -3.80243e-05 3.07317
0.315 0.01 -0.0157403 0.000237678 -3.92057e-05 3.16022
0.32 0.01 -0.016199 0.000240287 -4.04011e-05 3.24798
0.325 0.01 -0.0166614 0.000242522 -4.16086e-05 3.33628
0.33 0.01 -0.0171269 0.000244372 -4.28264e-05 3.42499
0.335 0.01 -0.0175947 0.000245824 -4.40524e-05 3.51394
0.34 0.01 -0.018064 0.000246868 -4.52847e-05 3.60298
0.345 0.01 -0.0185339 0.000247491 -4.65211e-05 3.69196
0.35 0.01 -0.0190037 0.000247684 -4.77596e-05 3.78071
0.355 0.01 -0.0194725 0.000247437 -4.8998e-05 3.86907
0.36 0.01 -0.0199394 0.000246739 -5.0234e-05 3.95687
0.365 0.01 -0.0204037 0.000245582 -5.14654e-05 4.04395
0.37 0.01 -0.0208642 0.000243959 -5.26899e-05 4.13014
0.375 0.01 -0.0213203 0.000241861 -5.39051e-05 4.21526
0.38 0.01 -0.021771 0.000239284 -5.51086e-05 4.29915
0.385 0.01 -0.0222153 0.000236221 -5.6298e-05 4.38164
0.39 0.01 -0.0226524 0.000232669 -5.74709e-05 4.46254
0.395 0.01 -0.0230813 0.000228624 -5.86248e-05 4.5417
0.4 0.01 -0.0235012 0.000224086 -5.97572e-05 4.61894
0.405 0.01 -0.023911 0.000219052 -6.08657e-05 4.69409
0.41 0.01 -0.0243099 0.000213523 -6.19478e-05 4.76699
0.415 0.01 -0.024697 0.000207502 -6.3001e-05 4.83746
0.42 0.01 -0.0250713 0.000200991 -6.40229e-05 4.90534
0.425 0.01 -0.025432 0.000193995 -6.5011e-05 4.97048
0.43 0.01 -0.0257782 0.000186519 -6.5963e-05 5.03271
0.435 0.01 -0.0261091 0.00017857 -6.68763e-05 5.09189
0.44 0.01 -0.0264237 0.000170157 -6.77488e-05 5.14785
0.445 0.01 -0.0267213 0.00016129 -6.8578e-05 5.20046
0.45 0.01 -0.027001 0.00015198 -6.93618e-05 5.24957
0.455 0.01 -0.0272622 0.000142239 -7.0098e-05 5.29505
0.46 0.01 -0.027504 0.000132083 -7.07844e-05 5.33677
0.465 0.01 -0.0277257 0.000121525 -7.14189e-05 5.37461
0.47 0.01 -0.0279266 0.000110584 -7.19998e-05 5.40845
0.475 0.01 -0.0281062 9.92777e-05 -7.25249e-05 5.43818
0.48 0.01 -0.0282637 8.76256e-05 -7.29927e-05 5.4637
0.485 0.01 -0.0283986 7.56491e-05 -7.34014e-05 5.48491
0.49 0.01 -0.0285104 6.33705e-05 -7.37494e-05 5.50173
0.495 0.01 -0.0285986 5.08136e-05 -7.40352e-05 5.51407
0.5 0.01 -0.0286627 3.80036e-05 -7.42577e-05 5.52188
0.505 0.01 -0.0287024 2.49668e-05 -7.44154e-05 5.52509
0.51 0.01 -0.0287173 1.17306e-05 -7.45075e-05 5.52366
0.515 0.01 -0.0287071 -1.67626e-06 -7.45329e-05 5.51753
0.52 0.01 -0.0286717 -1.5224e-05 -7.44909e-05 5.50668
0.525 0.01 -0.0286107 -2.88819e-05 -7.43809e-05 5.49109
0.53 0.01 -0.0285242 -4.26182e-05 -7.42023e-05 5.47075
0.535 0.01 -0.028412 -5.64003e-05 -7.39549e-05 5.44566
0.54 0.01 -0.0282742 -7.01949e-05 -7.36385e-05 5.41583
0.545 0.01 -0.0281107 -8.39679e-05 -7.32532e-05 5.38128
0.55 0.01 -0.0279218 -9.76847e-05 -7.2799e-05 5.34205
0.555 0.01 -0.0277075 -0.00011131 -7.22765e-05 5.29818
0.56 0.01 -0.0274683 -0.000124809 -7.16861e-05 5.24973
0.565 0.01 -0.0272042 -0.000138145 -7.10286e-05 5.19677
0.57 0.01 -0.0269159 -0.000151283 -7.03049e-05 5.13936
0.575 0.01 -0.0266036 -0.000164187 -6.9516e-05 5.07761
0.58 0.01 -0.0262679 -0.000176821 -6.86632e-05 5.0116
0.585 0.01 -0.0259093 -0.00018915 -6.7748e-05 4.94146
0.59 0.01 -0.0255285 -0.000201139 -6.67719e-05 4.8673
0.595 0.01 -0.0251262 -0.000212755 -6.57368e-05 4.78925
0.6 0.01 -0.024703 -0.000223963 -6.46446e-05 4.70745
0.605 0.01 -0.0242599 -0.000234731 -6.34974e-05 4.62207
0.61 0.01 -0.0237976 -0.000245029 -6.22975e-05 4.53325
0.615 0.01 -0.0233171 -0.000254825 -6.10473e-05 4.44117
0.62 0.01 -0.0228194 -0.000264091 -5.97494e-05 4.346
0.625 0.01 -0.0223054 -0.000272801 -5.84066e-05 4.24794
0.63 0.01 -0.0217761 -0.000280928 -5.70216e-05 4.14717
0.635 0.01 -0.0212328 -0.00028845 -5.55975e-05 4.0439
0.64 0.01 -0.0206766 -0.000295345 -5.41373e-05 3.93833
0.645 0.01 -0.0201085 -0.000301593 -5.26442e-05 3.83068
0.65 0.01 -0.0195298 -0.000307178 -5.11215e-05 3.72117
0.655 0.01 -0.0189418 -0.000312085 -4.95726e-05 3.61001
0.66 0.01 -0.0183457 -0.000316303 -4.80008e-05 3.49743
0.665 0.01 -0.0177427 -0.000319821 -4.64097e-05 3.38367
0.67 0.01 -0.0171342 -0.000322633 -4.48028e-05 3.26895
0.675 0.01 -0.0165213 -0.000324735 -4.31836e-05 3.15351
0.68 0.01 -0.0159056 -0.000326126 -4.15556e-05 3.03758
0.685 0.01 -0.0152881 -0.000326806 -3.99224e-05 2.92138
0.69 0.01 -0.0146702 -0.000326781 -3.82877e-05 2.80516
0.695 0.01 -0.0140533 -0.000326057 -3.66548e-05 2.68914
0.7 0.01 -0.0134384 -0.000324645 -3.50272e-05 2.57355
0.705 0.01 -0.012827 -0.000322556 -3.34084e-05 2.4586
0.71 0.01 -0.0122201 -0.000319807 -3.18017e-05 2.34453
0.715 0.01 -0.0116191 -0.000316415 -3.02105e-05 2.23154
0.72 0.01 -0.011025 -0.000312401 -2.86377e-05 2.11984
0.725 0.01 -0.0104389 -0.000307787 -2.70865e-05 2.00963
0.73 0.01 -0.00986201 -0.000302598 -2.55599e-05 1.90111
0.735 0.01 -0.00929526 -0.000296861 -2.40606e-05 1.79446
0.74 0.01 -0.00873963 -0.000290606 -2.25914e-05 1.68985
0.745 0.01 -0.00819607 -0.000283862 -2.11546e-05 1.58745
0.75 0.01 -0.00766543 -0.000276663 -1.97528e-05 1.48743
0.755 0.01 -0.00714853 -0.000269043 -1.83881e-05 1.38993
0.76 0.01 -0.00664611 -0.000261035 -1.70624e-05 1.29509
0.765 0.01 -0.00615885 -0.000252675 -1.57778e-05 1.20303
0.77 0.01 -0.00568739 -0.000244001 -1.45357e-05 1.11386
0.775 0.01 -0.00523226 -0.000235049 -1.33378e-05 1.0277
0.78 0.01 -0.00479397 -0.000225857 -1.21852e-05 0.944632
0.785 0.01 -0.00437294 -0.000216461 -1.10792e-05 0.864735
0.79 0.01 -0.00396951 -0.0002069 -1.00206e-05 0.788079
0.795 0.01 -0.00358397 -0.00019721 -9.01023e-06 0.714719
0.8 0.01 -0.00321655 -0.000187426 -8.04855e-06 0.644701
0.805 0.01 -0.00286741 -0.000177586 -7.13597e-06 0.578057
0.81 0.01 -0.00253663 -0.000167722 -6.2727e-06 0.514808
0.815 0.01 -0.00222424 -0.000157869 -5.45875e-06 0.454966
0.82 0.01 -0.00193023 -0.000148058 -4.694e-06 0.398528
0.825 0.01 -0.0016545 -0.000138321 -3.97815e-06 0.345485
0.83 0.01 -0.0013969 -0.000128686 -3.31078e-06 0.295814
0.835 0.01 -0.00115726 -0.000119181 -2.69128e-06 0.249487
0.84 0.01 -0.000935311 -0.00010983 -2.11895e-06 0.206461
0.845 0.01 -0.000730779 -0.000100659 -1.59296e-06 0.16669
0.85 0.01 -0.000543327 -9.16879e-05 -1.11235e-06 0.130116
0.855 0.01 -0.000372583 -8.29375e-05 -6.76059e-07 0.0966751
0.86 0.01 -0.000218136 -7.44255e-05 -2.82949e-07 0.0662959
0.865 0.01 -7.95463e-05 -6.6168e-05 6.82186e-08 0.0389008
0.87 0.01 4.366e-05 -5.81792e-05 3.78754e-07 0.014406
0.875 0.01 0.000151981 -5.04716e-05 6.50034e-07 -0.00727759
0.88 0.01 0.000245941 -4.30561e-05 8.83493e-07 -0.0262441
0.885 0.01 0.000326083 -3.59421e-05 1.08062e-06 -0.0425922
0.89 0.01 0.000392971 -2.91377e-05 1.24294e-06 -0.0564246
0.895 0.01 0.000447186 -2.26504e-05 1.37202e-06 -0.0678481
0.9 0.01 0.000489323 -1.64866e-05 1.46946e-06 -0.076973
0.905 0.01 0.000519996 -1.06528e-05 1.5369e-06 -0.0839133
0.91 0.01 0.000539831 -5.15559e-06 1.57601e-06 -0.0887868
0.915 0.01 0.000549471 -2.39479e-09 1.58848e-06 -0.091715
0.92 0.01 0.000549579 4.79786e-06 1.57605e-06 -0.0928239
0.925 0.01 0.000540838 9.23394e-06 1.54051e-06 -0.0922444
0.93 0.01 0.000523959 1.32912e-05 1.48372e-06 -0.0901135
0.935 0.01 0.000499687 1.69506e-05 1.40762e-06 -0.0865752
0.94 0.01 0.00046881 2.01869e-05 1.31423e-06 -0.0817824
0.945 0.01 0.000432168 2.29669e-05 1.20576e-06 -0.0758986
0.95 0.01 0.000390674 2.52473e-05 1.08457e-06 -0.0691008
0.955 0.01 0.000345327 2.69714e-05 9.53291e-07 -0.0615818
0.96 0.01 0.000297236 2.80661e-05 8.14861e-07 -0.0535538
0.965 0.01 0.000247646 2.84369e-05 6.72635e-07 -0.0452515
0.97 0.01 0.000197972 2.79635e-05 5.30496e-07 -0.0369353
0.975 0.01 0.000149826 2.6495e-05 3.93002e-07 -0.0288918
0.98 0.01 0.000105044 2.38511e-05 2.65547e-07 -0.0214301
0.985 0.01 6.56895e-05 1.98417e-05 1.54492e-07 -0.0148642
0.99 0.01 3.39759e-05 1.43505e-05 6.71307e-08 -0.0094687
0.995 0.01 1.20121e-05 7.61587e-06 1.09875e-08 -0.00537098
1 0.01 1.09662e-06 1.09875e-06 -9.02816e-09 -0.00232266
0 0.015 0 0 -0.000877294 0
0.005 0.015 0 0 0 -255.969
0.01 0.015 -0.152842 0.184838 -0.00180039 -79.2626
0.015 0.015 -0.206205 -0.0236981 -0.00184838 -16.6414
0.02 0.015 -0.204533 -0.0573409 -0.00156341 2.31641
0.025 0.015 -0.184518 -0.0522448 -0.00127497 7.93232
0.03 0.015 -0.161026 -0.0416102 -0.00104096 9.25914
0.035 0.015 -0.139047 -0.0324242 -0.000858872 9.12889
0.04 0.015 -0.119863 -0.0254835 -0.000716721 8.51005
0.045 0.015 -0.103505 -0.0203492 -0.000604037 7.75626
0.05 0.015 -0.0896474 -0.0165017 -0.000513229 7.00088
0.055 0.015 -0.0779096 -0.0135514 -0.00043902 6.29353
0.06 0.015 -0.0679502 -0.011235 -0.000377715 5.65065
0.065 0.015 -0.0594833 -0.00937871 -0.00032667 5.0752
0.07 0.015 -0.052274 -0.00786652 -0.000283928 4.56468
0.075 0.015 -0.0461297 -0.00661897 -0.000248004 4.11445
0.08 0.015 -0.0408912 -0.00557992 -0.000217738 3.71924
0.085 0.015 -0.036426 -0.00470837 -0.000192205 3.37372
0.09 0.015 -0.0326229 -0.00397342 -0.000170654 3.0728
0.095 0.015 -0.0293881 -0.00335111 -0.000152471 2.81173
0.1 0.015 -0.0266419 -0.00282244 -0.000137143 2.58619
0.105 0.015 -0.0243165 -0.00237207 -0.000124246 2.39224
0.11 0.015 -0.0223542 -0.00198743 -0.000113422 2.22632
0.115 0.015 -0.0207056 -0.00165813 -0.000104371 2.08528
0.12 0.015 -0.0193285 -0.00137551 -9.68407e-05 1.96629
0.125 0.015 -0.0181868 -0.0011323 -9.06162e-05 1.86683
0.13 0.015 -0.0172498 -0.000922417 -8.55174e-05 1.78469
0.135 0.015 -0.0164912 -0.000740704 -8.13918e-05 1.71793
0.14 0.015 -0.0158884 -0.000582824 -7.81102e-05 1.66483
0.145 0.015 -0.0154222 -0.000445109 -7.55634e-05 1.62388
0.15 0.015 -0.0150763 -0.000324456 -7.3659e-05 1.59377
0.155 0.015 -0.0148365 -0.000218244 -7.23187e-05 1.57336
0.16 0.015 -0.0146911 -0.000124254 -7.14764e-05 1.56164
0.165 0.015 -0.0146298 -4.06127e-05 -7.1076e-05 1.55775
0.17 0.015 -0.0146438 3.42619e-05 -7.10701e-05 1.56092
0.175 0.015 -0.0147258 0.000101704 -7.14185e-05 1.5705
0.18 0.015 -0.0148694 0.000162839 -7.2087e-05 1.58591
0.185 0.015 -0.015069 0.00021861 -7.30468e-05 1.60664
0.19 0.015 -0.0153202 0.000269811 -7.4273e-05 1.63227
0.195 0.015 -0.0156188 0.000317105 -7.57448e-05 1.66239
0.2 0.015 -0.0159613 0.000361043 -7.7444e-05 1.69669
0.205 0.015 -0.0163448 0.000402087 -7.93551e-05 1.73485
0.21 0.015 -0.0167665 0.000440615 -8.14647e-05 1.77661
0.215 0.015 -0.0172243 0.000476939 -8.37611e-05 1.82173
0.22 0.015 -0.0177159 0.000511315 -8.6234e-05 1.87001
0.225 0.015 -0.0182396 0.00054395 -8.88742e-05 1.92124
0.23 0.015 -0.0187937 0.000575008 -9.16735e-05 1.97524
0.235 0.015 -0.0193767 0.00060462 -9.46242e-05 2.03185
0.24 0.015 -0.019987 0.000632887 -9.77196e-05 2.09092
0.245 0.015 -0.0206235 0.000659885 -0.000100953 2.15229
0.25 0.015 -0.0212847 0.00068567 -0.000104318 2.21582
0.255 0.015 -0.0219694 0.000710279 -0.00010781 2.28138
0.26 0.015 -0.0226765 0.000733735 -0.000111421 2.34883
0.265 0.015 -0.0234047 0.000756047 -0.000115147 2.41804
0.27 0.015 -0.0241528 0.000777214 -0.000118982 2.48889
0.275 0.015 -0.0249197 0.000797228 -0.000122919 2.56123
0.28 0.015 -0.0257041 0.00081607 -0.000126954 2.63495
0.285 0.015 -0.0265049 0.000833719 -0.00013108 2.70991
0.29 0.015 -0.0273207 0.000850146 -0.000135291 2.78598
0.295 0.015 -0.0281503 0.00086532 -0.000139581 2.86302
0.3 0.015 -0.0289924 0.000879205 -0.000143944 2.9409
0.305 0.015 -0.0298458 0.000891763 -0.000148374 3.0195
0.31 0.015 -0.0307089 0.000902957 -0.000152862 3.09865
0.315 0.015 -0.0315805 0.000912746 -0.000157403 3.17823
0.32 0.015 -0.0324592 0.000921088 -0.00016199 3.2581
0.325 0.015 -0.0333433 0.000927945 -0.000166614 3.3381
0.33 0.015 -0.0342316 0.000933275 -0.000171269 3.4181
0.335 0.015 -0.0351223 0.00093704 -0.000175947 3.49795
0.34 0.015 -0.0360141 0.000939202 -0.00018064 3.57749
0.345 0.015 -0.0369052 0.000939725 -0.000185339 3.65658
0.35 0.015 -0.0377942 0.000938575 -0.000190037 3.73507
0.355 0.015 -0.0386793 0.00093572 -0.000194725 3.8128
0.36 0.015 -0.0395589 0.000931132 -0.000199395 3.88963
0.365 0.015 -0.0404314 0.000924785 -0.000204037 3.96539
0.37 0.015 -0.041295 0.000916655 -0.000208643 4.03995
0.375 0.015 -0.042148 0.000906723 -0.000213204 4.11315
0.38 0.015 -0.0429888 0.000894974 -0.00021771 4.18483
0.385 0.015 -0.0438155 0.000881396 -0.000222154 4.25486
0.39 0.015 -0.0446266 0.000865981 -0.000226525 4.32307
0.395 0.015 -0.0454202 0.000848724 -0.000230814 4.38934
0.4 0.015 -0.0461948 0.000829627 -0.000235012 4.4535
0.405 0.015 -0.0469485 0.000808695 -0.00023911 4.51543
0.41 0.015 -0.0476796 0.000785937 -0.000243099 4.57499
0.415 0.015 -0.0483867 0.000761367 -0.00024697 4.63203
0.42 0.015 -0.0490679 0.000735004 -0.000250714 4.68643
0.425 0.015 -0.0497216 0.000706873 -0.000254321 4.73807
0.43 0.015 -0.0503464 0.000677001 -0.000257783 4.78681
0.435 0.015 -0.0509406 0.000645421 -0.000261091 4.83255
0.44 0.015 -0.0515027 0.000612174 -0.000264237 4.87516
0.445 0.015 -0.0520313 0.000577301 -0.000267213 4.91454
0.45 0.015 -0.0525249 0.000540851 -0.000270011 4.95059
0.455 0.015 -0.0529823 0.000502878 -0.000272622 4.98322
0.46 0.015 -0.0534021 0.00046344 -0.00027504 5.01232
0.465 0.015 -0.053783 0.000422599 -0.000277257 5.03781
0.47 0.015 -0.0541239 0.000380424 -0.000279267 5.05962
0.475 0.015 -0.0544237 0.000336988 -0.000281062 5.07768
0.48 0.015 -0.0546814 0.000292368 -0.000282637 5.09192
0.485 0.015 -0.0548959 0.000246646 -0.000283987 5.10229
0.49 0.015 -0.0550665 0.000199908 -0.000285104 5.10873
0.495 0.015 -0.0551923 0.000152246 -0.000285986 5.1112
0.5 0.015 -0.0552727 0.000103754 -0.000286628 5.10968
0.505 0.015 -0.0553069 5.45321e-05 -0.000287025 5.10412
0.51 0.015 -0.0552946 4.68281e-06 -0.000287174 5.09452
0.515 0.015 -0.0552353 -4.56871e-05 -0.000287072 5.08087
0.52 0.015 -0.0551287 -9.64676e-05 -0.000286717 5.06315
0.525 0.015 -0.0549746 -0.000147545 -0.000286108 5.04139
0.53 0.015 -0.0547728 -0.000198804 -0.000285243 5.01558
0.535 0.015 -0.0545233 -0.000250125 -0.000284121 4.98577
0.54 0.015 -0.0542263 -0.000301387 -0.000282742 4.95197
0.545 0.015 -0.053882 -0.000352467 -0.000281108 4.91423
0.55 0.015 -0.0534907 -0.000403241 -0.000279218 4.87259
0.555 0.015 -0.0530528 -0.000453581 -0.000277076 4.82712
0.56 0.015 -0.0525689 -0.000503363 -0.000274683 4.77788
0.565 0.015 -0.0520397 -0.000552458 -0.000272043 4.72493
0.57 0.015 -0.0514658 -0.000600739 -0.00026916 4.66837
0.575 0.015 -0.0508483 -0.00064808 -0.000266037 4.60827
0.58 0.015 -0.050188 -0.000694355 -0.00026268 4.54475
0.585 0.015 -0.0494862 -0.000739441 -0.000259094 4.4779
0.59 0.015 -0.048744 -0.000783214 -0.000255286 4.40783
0.595 0.015 -0.0479626 -0.000825556 -0.000251263 4.33466
0.6 0.015 -0.0471437 -0.000866349 -0.000247031 4.25852
0.605 0.015 -0.0462885 -0.000905482 -0.0002426 4.17955
0.61 0.015 -0.0453989 -0.000942845 -0.000237977 4.09787
0.615 0.015 -0.0444764 -0.000978334 -0.000233172 4.01365
0.62 0.015 -0.0435228 -0.00101185 -0.000228194 3.92701
0.625 0.015 -0.0425401 -0.0010433 -0.000223054 3.83814
0.63 0.015 -0.0415302 -0.0010726 -0.000217762 3.74717
0.635 0.015 -0.040495 -0.00109966 -0.000212329 3.65428
0.64 0.015 -0.0394368 -0.00112441 -0.000206766 3.55964
0.645 0.015 -0.0383575 -0.0011468 -0.000201086 3.46343
0.65 0.015 -0.0372594 -0.00116675 -0.000195299 3.36581
0.655 0.015 -0.0361448 -0.00118422 -0.000189419 3.26696
0.66 0.015 -0.0350159 -0.00119918 -0.000183457 3.16708
0.665 0.015 -0.033875 -0.00121158 -0.000177428 3.06633
0.67 0.015 -0.0327245 -0.00122141 -0.000171342 2.96491
0.675 0.015 -0.0315666 -0.00122866 -0.000165214 2.863
0.68 0.015 -0.0304038 -0.00123331 -0.000159056 2.76078
0.685 0.015 -0.0292383 -0.00123539 -0.000152881 2.65844
0.69 0.015 -0.0280726 -0.00123489 -0.000146703 2.55615
0.695 0.015 -0.0269088 -0.00123186 -0.000140533 2.45411
0.7 0.015 -0.0257493 -0.00122633 -0.000134385 2.35249
0.705 0.015 -0.0245964 -0.00121833 -0.00012827 2.25146
0.71 0.015 -0.0234522 -0.00120794 -0.000122202 2.1512
0.715 0.015 -0.0223189 -0.0011952 -0.000116191 2.05188
0.72 0.015 -0.0211986 -0.00118019 -0.00011025 1.95367
0.725 0.015 -0.0200933 -0.001163 -0.00010439 1.85672
0.73 0.015 -0.0190049 -0.00114371 -9.86204e-05 1.76118
0.735 0.015 -0.0179354 -0.00112241 -9.29529e-05 1.66722
0.74 0.015 -0.0168864 -0.00109922 -8.73966e-05 1.57496
0.745 0.015 -0.0158597 -0.00107423 -8.19609e-05 1.48455
0.75 0.015 -0.0148569 -0.00104757 -7.66545e-05 1.39612
0.755 0.015 -0.0138795 -0.00101935 -7.14855e-05 1.30979
0.76 0.015 -0.0129288 -0.000989695 -6.64612e-05 1.22566
0.765 0.015 -0.012006 -0.000958737 -6.15887e-05 1.14386
0.77 0.015 -0.0111125 -0.000926604 -5.6874e-05 1.06446
0.775 0.015 -0.0102491 -0.000893427 -5.23228e-05 0.987576
0.78 0.015 -0.00941685 -0.00085934 -4.79398e-05 0.913271
0.785 0.015 -0.00861649 -0.000824478 -4.37294e-05 0.841621
0.79 0.015 -0.00784872 -0.000788974 -3.96951e-05 0.772688
0.795 0.015 -0.0071141 -0.000752961 -3.58397e-05 0.706526
0.8 0.015 -0.00641307 -0.000716569 -3.21655e-05 0.643179
0.805 0.015 -0.00574596 -0.000679929 -2.86741e-05 0.582682
0.81 0.015 -0.00511297 -0.000643164 -2.53663e-05 0.525061
0.815 0.015 -0.0045142 -0.000606398 -2.22424e-05 0.470334
0.82 0.015 -0.00394964 -0.000569747 -1.93023e-05 0.418509
0.825 0.015 -0.00341918 -0.000533324 -1.65449e-05 0.369586
0.83 0.015 -0.00292259 -0.000497237 -1.3969e-05 0.323558
0.835 0.015 -0.00245956 -0.000461588 -1.15725e-05 0.280407