Title=" Lid Driven Flow"
VARIABLES="X","Y","U","V","psi","xi"
ZONE T= "BOX", I= 201, J=201, F=POINT
0 0 0 0 0.00229145 0
0.005 0 0 0 0 0
0.01 0 0 0 0 0
0.015 0 0 0 0 161.891
0.02 0 0 0 0 176.125
0.025 0 0 0 0 155.612
0.03 0 0 0 0 133.231
0.035 0 0 0 0 115.72
0.04 0 0 0 0 102.875
0.045 0 0 0 0 93.3484
0.05 0 0 0 0 86.0298
0.055 0 0 0 0 80.1856
0.06 0 0 0 0 75.3572
0.065 0 0 0 0 71.2559
0.07 0 0 0 0 67.6944
0.075 0 0 0 0 64.5464
0.08 0 0 0 0 61.7242
0.085 0 0 0 0 59.1648
0.09 0 0 0 0 56.8218
0.095 0 0 0 0 54.6606
0.1 0 0 0 0 52.6545
0.105 0 0 0 0 50.7829
0.11 0 0 0 0 49.0295
0.115 0 0 0 0 47.3813
0.12 0 0 0 0 45.8274
0.125 0 0 0 0 44.3591
0.13 0 0 0 0 42.969
0.135 0 0 0 0 41.6506
0.14 0 0 0 0 40.3985
0.145 0 0 0 0 39.2077
0.15 0 0 0 0 38.0741
0.155 0 0 0 0 36.9937
0.16 0 0 0 0 35.963
0.165 0 0 0 0 34.9787
0.17 0 0 0 0 34.038
0.175 0 0 0 0 33.1381
0.18 0 0 0 0 32.2763
0.185 0 0 0 0 31.4503
0.19 0 0 0 0 30.6579
0.195 0 0 0 0 29.8968
0.2 0 0 0 0 29.165
0.205 0 0 0 0 28.4608
0.21 0 0 0 0 27.7822
0.215 0 0 0 0 27.1276
0.22 0 0 0 0 26.4953
0.225 0 0 0 0 25.8839
0.23 0 0 0 0 25.2919
0.235 0 0 0 0 24.718
0.24 0 0 0 0 24.1608
0.245 0 0 0 0 23.6191
0.25 0 0 0 0 23.0919
0.255 0 0 0 0 22.578
0.26 0 0 0 0 22.0765
0.265 0 0 0 0 21.5863
0.27 0 0 0 0 21.1067
0.275 0 0 0 0 20.6367
0.28 0 0 0 0 20.1756
0.285 0 0 0 0 19.7226
0.29 0 0 0 0 19.2772
0.295 0 0 0 0 18.8387
0.3 0 0 0 0 18.4065
0.305 0 0 0 0 17.9801
0.31 0 0 0 0 17.5591
0.315 0 0 0 0 17.1429
0.32 0 0 0 0 16.7313
0.325 0 0 0 0 16.3238
0.33 0 0 0 0 15.9202
0.335 0 0 0 0 15.5202
0.34 0 0 0 0 15.1235
0.345 0 0 0 0 14.73
0.35 0 0 0 0 14.3395
0.355 0 0 0 0 13.9519
0.36 0 0 0 0 13.5671
0.365 0 0 0 0 13.185
0.37 0 0 0 0 12.8056
0.375 0 0 0 0 12.4289
0.38 0 0 0 0 12.0549
0.385 0 0 0 0 11.6836
0.39 0 0 0 0 11.3151
0.395 0 0 0 0 10.9496
0.4 0 0 0 0 10.5871
0.405 0 0 0 0 10.2277
0.41 0 0 0 0 9.87164
0.415 0 0 0 0 9.51905
0.42 0 0 0 0 9.17011
0.425 0 0 0 0 8.82501
0.43 0 0 0 0 8.48395
0.435 0 0 0 0 8.14716
0.44 0 0 0 0 7.81484
0.445 0 0 0 0 7.48721
0.45 0 0 0 0 7.16452
0.455 0 0 0 0 6.84698
0.46 0 0 0 0 6.53483
0.465 0 0 0 0 6.2283
0.47 0 0 0 0 5.92759
0.475 0 0 0 0 5.63294
0.48 0 0 0 0 5.34455
0.485 0 0 0 0 5.06262
0.49 0 0 0 0 4.78735
0.495 0 0 0 0 4.5189
0.5 0 0 0 0 4.25745
0.505 0 0 0 0 4.00313
0.51 0 0 0 0 3.7561
0.515 0 0 0 0 3.51646
0.52 0 0 0 0 3.28432
0.525 0 0 0 0 3.05976
0.53 0 0 0 0 2.84284
0.535 0 0 0 0 2.63361
0.54 0 0 0 0 2.4321
0.545 0 0 0 0 2.2383
0.55 0 0 0 0 2.05222
0.555 0 0 0 0 1.87382
0.56 0 0 0 0 1.70306
0.565 0 0 0 0 1.53986
0.57 0 0 0 0 1.38415
0.575 0 0 0 0 1.23583
0.58 0 0 0 0 1.09478
0.585 0 0 0 0 0.960874
0.59 0 0 0 0 0.833977
0.595 0 0 0 0 0.713931
0.6 0 0 0 0 0.600574
0.605 0 0 0 0 0.493729
0.61 0 0 0 0 0.393216
0.615 0 0 0 0 0.298842
0.62 0 0 0 0 0.210412
0.625 0 0 0 0 0.127723
0.63 0 0 0 0 0.050569
0.635 0 0 0 0 -0.0212594
0.64 0 0 0 0 -0.0879738
0.645 0 0 0 0 -0.149787
0.65 0 0 0 0 -0.206912
0.655 0 0 0 0 -0.259563
0.66 0 0 0 0 -0.307951
0.665 0 0 0 0 -0.352287
0.67 0 0 0 0 -0.392779
0.675 0 0 0 0 -0.429634
0.68 0 0 0 0 -0.463056
0.685 0 0 0 0 -0.493242
0.69 0 0 0 0 -0.520391
0.695 0 0 0 0 -0.544694
0.7 0 0 0 0 -0.566339
0.705 0 0 0 0 -0.585508
0.71 0 0 0 0 -0.602379
0.715 0 0 0 0 -0.617122
0.72 0 0 0 0 -0.629902
0.725 0 0 0 0 -0.640877
0.73 0 0 0 0 -0.650196
0.735 0 0 0 0 -0.658
0.74 0 0 0 0 -0.664422
0.745 0 0 0 0 -0.669582
0.75 0 0 0 0 -0.673593
0.755 0 0 0 0 -0.676555
0.76 0 0 0 0 -0.678556
0.765 0 0 0 0 -0.679674
0.77 0 0 0 0 -0.679974
0.775 0 0 0 0 -0.679509
0.78 0 0 0 0 -0.678318
0.785 0 0 0 0 -0.676432
0.79 0 0 0 0 -0.673866
0.795 0 0 0 0 -0.670627
0.8 0 0 0 0 -0.666712
0.805 0 0 0 0 -0.662107
0.81 0 0 0 0 -0.656791
0.815 0 0 0 0 -0.650734
0.82 0 0 0 0 -0.643902
0.825 0 0 0 0 -0.636255
0.83 0 0 0 0 -0.627751
0.835 0 0 0 0 -0.618346
0.84 0 0 0 0 -0.607995
0.845 0 0 0 0 -0.596655
0.85 0 0 0 0 -0.584286
0.855 0 0 0 0 -0.570852
0.86 0 0 0 0 -0.556324
0.865 0 0 0 0 -0.540679
0.87 0 0 0 0 -0.523903
0.875 0 0 0 0 -0.505994
0.88 0 0 0 0 -0.486959
0.885 0 0 0 0 -0.466818
0.89 0 0 0 0 -0.445607
0.895 0 0 0 0 -0.423374
0.9 0 0 0 0 -0.400184
0.905 0 0 0 0 -0.376117
0.91 0 0 0 0 -0.351272
0.915 0 0 0 0 -0.325764
0.92 0 0 0 0 -0.299727
0.925 0 0 0 0 -0.273313
0.93 0 0 0 0 -0.246694
0.935 0 0 0 0 -0.220061
0.94 0 0 0 0 -0.193625
0.945 0 0 0 0 -0.167617
0.95 0 0 0 0 -0.142291
0.955 0 0 0 0 -0.11792
0.96 0 0 0 0 -0.0948011
0.965 0 0 0 0 -0.0732544
0.97 0 0 0 0 -0.0536223
0.975 0 0 0 0 -0.0362683
0.98 0 0 0 0 -0.0215721
0.985 0 0 0 0 -0.00991527
0.99 0 0 0 0 -0.00164776
0.995 0 0 0 0 0.00299069
1 0 0 0 0 0.0040527
0 0.005 0 0 0 0
0.005 0.005 0 0 0 0
0.01 0.005 0 0 0 73.7272
0.015 0.005 0 0 0 62.0421
0.02 0.005 0 0 0 45.6596
0.025 0.005 0 0 0 33.8727
0.03 0.005 0 0 0 25.9796
0.035 0.005 0 0 0 20.5784
0.04 0.005 0 0 0 16.7216
0.045 0.005 0 0 0 13.8506
0.05 0.005 0 0 0 11.6397
0.055 0.005 0 0 0 9.89279
0.06 0.005 0 0 0 8.48602
0.065 0.005 0 0 0 7.33731
0.07 0.005 0 0 0 6.38974
0.075 0.005 0 0 0 5.60219
0.08 0.005 0 0 0 4.94398
0.085 0.005 0 0 0 4.3916
0.09 0.005 0 0 0 3.92665
0.095 0.005 0 0 0 3.53448
0.1 0.005 0 0 0 3.2033
0.105 0.005 0 0 0 2.92349
0.11 0.005 0 0 0 2.68716
0.115 0.005 0 0 0 2.4878
0.12 0.005 0 0 0 2.32001
0.125 0.005 0 0 0 2.17926
0.13 0.005 0 0 0 2.06178
0.135 0.005 0 0 0 1.96442
0.14 0.005 0 0 0 1.88449
0.145 0.005 0 0 0 1.81975
0.15 0.005 0 0 0 1.7683
0.155 0.005 0 0 0 1.72853
0.16 0.005 0 0 0 1.69905
0.165 0.005 0 0 0 1.67872
0.17 0.005 0 0 0 1.66653
0.175 0.005 0 0 0 1.66163
0.18 0.005 0 0 0 1.6633
0.185 0.005 0 0 0 1.6709
0.19 0.005 0 0 0 1.68389
0.195 0.005 0 0 0 1.70181
0.2 0.005 0 0 0 1.72426
0.205 0.005 0 0 0 1.75087
0.21 0.005 0 0 0 1.78133
0.215 0.005 0 0 0 1.81537
0.22 0.005 0 0 0 1.85274
0.225 0.005 0 0 0 1.89322
0.23 0.005 0 0 0 1.93661
0.235 0.005 0 0 0 1.98273
0.24 0.005 0 0 0 2.03141
0.245 0.005 0 0 0 2.08249
0.25 0.005 0 0 0 2.13583
0.255 0.005 0 0 0 2.19127
0.26 0.005 0 0 0 2.24869
0.265 0.005 0 0 0 2.30795
0.27 0.005 0 0 0 2.36892
0.275 0.005 0 0 0 2.43148
0.28 0.005 0 0 0 2.49549
0.285 0.005 0 0 0 2.56083
0.29 0.005 0 0 0 2.62738
0.295 0.005 0 0 0 2.69499
0.3 0.005 0 0 0 2.76356
0.305 0.005 0 0 0 2.83293
0.31 0.005 0 0 0 2.90298
0.315 0.005 0 0 0 2.97358
0.32 0.005 0 0 0 3.04458
0.325 0.005 0 0 0 3.11585
0.33 0.005 0 0 0 3.18725
0.335 0.005 0 0 0 3.25863
0.34 0.005 0 0 0 3.32985
0.345 0.005 0 0 0 3.40076
0.35 0.005 0 0 0 3.47121
0.355 0.005 0 0 0 3.54105
0.36 0.005 0 0 0 3.61014
0.365 0.005 0 0 0 3.67832
0.37 0.005 0 0 0 3.74543
0.375 0.005 0 0 0 3.81133
0.38 0.005 0 0 0 3.87586
0.385 0.005 0 0 0 3.93887
0.39 0.005 0 0 0 4.00022
0.395 0.005 0 0 0 4.05974
0.4 0.005 0 0 0 4.1173
0.405 0.005 0 0 0 4.17275
0.41 0.005 0 0 0 4.22594
0.415 0.005 0 0 0 4.27673
0.42 0.005 0 0 0 4.32499
0.425 0.005 0 0 0 4.37058
0.43 0.005 0 0 0 4.41338
0.435 0.005 0 0 0 4.45326
0.44 0.005 0 0 0 4.49011
0.445 0.005 0 0 0 4.5238
0.45 0.005 0 0 0 4.55424
0.455 0.005 0 0 0 4.58132
0.46 0.005 0 0 0 4.60495
0.465 0.005 0 0 0 4.62504
0.47 0.005 0 0 0 4.64151
0.475 0.005 0 0 0 4.6543
0.48 0.005 0 0 0 4.66333
0.485 0.005 0 0 0 4.66856
0.49 0.005 0 0 0 4.66994
0.495 0.005 0 0 0 4.66743
0.5 0.005 0 0 0 4.66101
0.505 0.005 0 0 0 4.65066
0.51 0.005 0 0 0 4.63637
0.515 0.005 0 0 0 4.61814
0.52 0.005 0 0 0 4.59599
0.525 0.005 0 0 0 4.56993
0.53 0.005 0 0 0 4.54001
0.535 0.005 0 0 0 4.50625
0.54 0.005 0 0 0 4.46872
0.545 0.005 0 0 0 4.42747
0.55 0.005 0 0 0 4.38257
0.555 0.005 0 0 0 4.33411
0.56 0.005 0 0 0 4.28218
0.565 0.005 0 0 0 4.22687
0.57 0.005 0 0 0 4.16829
0.575 0.005 0 0 0 4.10656
0.58 0.005 0 0 0 4.0418
0.585 0.005 0 0 0 3.97414
0.59 0.005 0 0 0 3.90372
0.595 0.005 0 0 0 3.83069
0.6 0.005 0 0 0 3.7552
0.605 0.005 0 0 0 3.6774
0.61 0.005 0 0 0 3.59746
0.615 0.005 0 0 0 3.51554
0.62 0.005 0 0 0 3.43181
0.625 0.005 0 0 0 3.34645
0.63 0.005 0 0 0 3.25962
0.635 0.005 0 0 0 3.17152
0.64 0.005 0 0 0 3.08231
0.645 0.005 0 0 0 2.99218
0.65 0.005 0 0 0 2.90131
0.655 0.005 0 0 0 2.80987
0.66 0.005 0 0 0 2.71805
0.665 0.005 0 0 0 2.62601
0.67 0.005 0 0 0 2.53394
0.675 0.005 0 0 0 2.44199
0.68 0.005 0 0 0 2.35034
0.685 0.005 0 0 0 2.25915
0.69 0.005 0 0 0 2.16858
0.695 0.005 0 0 0 2.07877
0.7 0.005 0 0 0 1.98987
0.705 0.005 0 0 0 1.90203
0.71 0.005 0 0 0 1.81538
0.715 0.005 0 0 0 1.73004
0.72 0.005 0 0 0 1.64613
0.725 0.005 0 0 0 1.56377
0.73 0.005 0 0 0 1.48306
0.735 0.005 0 0 0 1.4041
0.74 0.005 0 0 0 1.32697
0.745 0.005 0 0 0 1.25177
0.75 0.005 0 0 0 1.17856
0.755 0.005 0 0 0 1.10741
0.76 0.005 0 0 0 1.03838
0.765 0.005 0 0 0 0.971519
0.77 0.005 0 0 0 0.906871
0.775 0.005 0 0 0 0.844471
0.78 0.005 0 0 0 0.784348
0.785 0.005 0 0 0 0.726524
0.79 0.005 0 0 0 0.671013
0.795 0.005 0 0 0 0.617824
0.8 0.005 0 0 0 0.566958
0.805 0.005 0 0 0 0.518413
0.81 0.005 0 0 0 0.472177
0.815 0.005 0 0 0 0.428237
0.82 0.005 0 0 0 0.386573
0.825 0.005 0 0 0 0.347161
0.83 0.005 0 0 0 0.309971
0.835 0.005 0 0 0 0.274971
0.84 0.005 0 0 0 0.242126
0.845 0.005 0 0 0 0.211396
0.85 0.005 0 0 0 0.182739
0.855 0.005 0 0 0 0.156109
0.86 0.005 0 0 0 0.131461
0.865 0.005 0 0 0 0.108745
0.87 0.005 0 0 0 0.0879103
0.875 0.005 0 0 0 0.0689052
0.88 0.005 0 0 0 0.0516766
0.885 0.005 0 0 0 0.0361702
0.89 0.005 0 0 0 0.0223312
0.895 0.005 0 0 0 0.010104
0.9 0.005 0 0 0 -0.000567578
0.905 0.005 0 0 0 -0.00974022
0.91 0.005 0 0 0 -0.0174713
0.915 0.005 0 0 0 -0.0238188
0.92 0.005 0 0 0 -0.0288419
0.925 0.005 0 0 0 -0.0326008
0.93 0.005 0 0 0 -0.035158
0.935 0.005 0 0 0 -0.0365783
0.94 0.005 0 0 0 -0.0369303
0.945 0.005 0 0 0 -0.0362875
0.95 0.005 0 0 0 -0.0347302
0.955 0.005 0 0 0 -0.0323482
0.96 0.005 0 0 0 -0.0292435
0.965 0.005 0 0 0 -0.0255354
0.97 0.005 0 0 0 -0.0213661
0.975 0.005 0 0 0 -0.0169092
0.98 0.005 0 0 0 -0.0123805
0.985 0.005 0 0 0 -0.00805227
0.99 0.005 0 0 0 -0.0042675
0.995 0.005 0 0 0 -0.0014403
1 0.005 0 0 0 1.19855e-05
0 0.01 0 0 1.19855e-05 0
0.005 0.01 0 0 0 -326.273
0.01 0.01 -0.180015 0.0775527 -0.00092159 -44.4274
0.015 0.01 -0.184734 -0.0350844 -0.000775527 9.50285
0.02 0.01 -0.156149 -0.0352117 -0.000570745 19.098
0.025 0.01 -0.127269 -0.0246 -0.000423409 18.9816
0.03 0.01 -0.103908 -0.0166179 -0.000324745 16.8297
0.035 0.01 -0.0858155 -0.0115726 -0.000257231 14.5199
0.04 0.01 -0.0717744 -0.00840985 -0.00020902 12.4811
0.045 0.01 -0.0607159 -0.00635231 -0.000173132 10.7659
0.05 0.01 -0.0518608 -0.00494722 -0.000145496 9.33657
0.055 0.01 -0.044665 -0.00394212 -0.00012366 8.14326
0.06 0.01 -0.0387473 -0.00319435 -0.000106075 7.14193
0.065 0.01 -0.0338352 -0.00262034 -9.17163e-05 6.29733
0.07 0.01 -0.0297288 -0.00216889 -7.98717e-05 5.58178
0.075 0.01 -0.0262774 -0.00180719 -7.00273e-05 4.97346
0.08 0.01 -0.0233651 -0.00151323 -6.17996e-05 4.45499
0.085 0.01 -0.0209005 -0.00127166 -5.48949e-05 4.01231
0.09 0.01 -0.0188105 -0.00107139 -4.9083e-05 3.63397
0.095 0.01 -0.0170361 -0.000904173 -4.41809e-05 3.31047
0.1 0.01 -0.0155288 -0.000763728 -4.00411e-05 3.03393
0.105 0.01 -0.0142487 -0.000645157 -3.65435e-05 2.79774
0.11 0.01 -0.0131625 -0.000544591 -3.35894e-05 2.59633
0.115 0.01 -0.0122425 -0.000458931 -3.10974e-05 2.42498
0.12 0.01 -0.0114654 -0.000385671 -2.9e-05 2.2797
0.125 0.01 -0.0108118 -0.000322767 -2.72406e-05 2.15709
0.13 0.01 -0.0102649 -0.00026854 -2.57722e-05 2.05425
0.135 0.01 -0.00981095 -0.000221607 -2.45551e-05 1.96869
0.14 0.01 -0.00943798 -0.000180819 -2.3556e-05 1.8983
0.145 0.01 -0.00913592 -0.000145222 -2.27468e-05 1.84127
0.15 0.01 -0.0088962 -0.000114021 -2.21037e-05 1.79602
0.155 0.01 -0.00871148 -8.65484e-05 -2.16065e-05 1.76122
0.16 0.01 -0.00857551 -6.22462e-05 -2.12381e-05 1.73572
0.165 0.01 -0.00848292 -4.06456e-05 -2.09839e-05 1.71852
0.17 0.01 -0.0084291 -2.1352e-05 -2.08315e-05 1.70876
0.175 0.01 -0.0084101 -4.03346e-06 -2.07703e-05 1.7057
0.18 0.01 -0.0084225 1.15898e-05 -2.07911e-05 1.70868
0.185 0.01 -0.00846335 2.57536e-05 -2.08861e-05 1.71715
0.19 0.01 -0.00853008 3.86566e-05 -2.10486e-05 1.73061
0.195 0.01 -0.00862046 5.04662e-05 -2.12726e-05 1.74864
0.2 0.01 -0.00873255 6.13231e-05 -2.15532e-05 1.77085
0.205 0.01 -0.00886463 7.13457e-05 -2.18858e-05 1.79692
0.21 0.01 -0.00901519 8.06332e-05 -2.22666e-05 1.82654
0.215 0.01 -0.00918287 8.92686e-05 -2.2692e-05 1.85945
0.22 0.01 -0.00936648 9.73208e-05 -2.31592e-05 1.89541
0.225 0.01 -0.00956493 0.000104847 -2.36652e-05 1.93421
0.23 0.01 -0.00977722 0.000111895 -2.42076e-05 1.97564
0.235 0.01 -0.0100024 0.000118504 -2.47841e-05 2.01953
0.24 0.01 -0.0102398 0.000124704 -2.53926e-05 2.06569
0.245 0.01 -0.0104884 0.000130521 -2.60311e-05 2.11399
0.25 0.01 -0.0107475 0.000135975 -2.66978e-05 2.16425
0.255 0.01 -0.0110166 0.000141081 -2.73909e-05 2.21634
0.26 0.01 -0.0112947 0.00014585 -2.81086e-05 2.27012
0.265 0.01 -0.0115814 0.000150292 -2.88494e-05 2.32546
0.27 0.01 -0.0118759 0.000154411 -2.96115e-05 2.38221
0.275 0.01 -0.0121775 0.000158211 -3.03935e-05 2.44026
0.28 0.01 -0.0124857 0.000161693 -3.11937e-05 2.49947
0.285 0.01 -0.0127999 0.000164856 -3.20104e-05 2.55971
0.29 0.01 -0.0131193 0.0001677 -3.28422e-05 2.62087
0.295 0.01 -0.0134433 0.00017022 -3.36875e-05 2.6828
0.3 0.01 -0.0137713 0.000172415 -3.45445e-05 2.74538
0.305 0.01 -0.0141027 0.000174278 -3.54117e-05 2.80849
0.31 0.01 -0.0144368 0.000175806 -3.62873e-05 2.872
0.315 0.01 -0.0147728 0.000176994 -3.71698e-05 2.93576
0.32 0.01 -0.0151103 0.000177836 -3.80573e-05 2.99966
0.325 0.01 -0.0154484 0.000178328 -3.89482e-05 3.06356
0.33 0.01 -0.0157865 0.000178464 -3.98407e-05 3.12733
0.335 0.01 -0.0161239 0.000178239 -4.0733e-05 3.19083
0.34 0.01 -0.0164599 0.000177649 -4.16232e-05 3.25394
0.345 0.01 -0.0167937 0.00017669 -4.25096e-05 3.3165
0.35 0.01 -0.0171248 0.000175358 -4.33902e-05 3.3784
0.355 0.01 -0.0174523 0.000173651 -4.42633e-05 3.43949
0.36 0.01 -0.0177756 0.000171564 -4.51269e-05 3.49964
0.365 0.01 -0.0180939 0.000169098 -4.59791e-05 3.55871
0.37 0.01 -0.0184065 0.000166251 -4.6818e-05 3.61657
0.375 0.01 -0.0187128 0.000163023 -4.76418e-05 3.67309
0.38 0.01 -0.0190119 0.000159415 -4.84484e-05 3.72813
0.385 0.01 -0.0193032 0.000155429 -4.92361e-05 3.78156
0.39 0.01 -0.019586 0.000151067 -5.00029e-05 3.83326
0.395 0.01 -0.0198596 0.000146333 -5.0747e-05 3.8831
0.4 0.01 -0.0201233 0.000141233 -5.14665e-05 3.93095
0.405 0.01 -0.0203764 0.000135771 -5.21596e-05 3.97669
0.41 0.01 -0.0206184 0.000129955 -5.28244e-05 4.02021
0.415 0.01 -0.0208485 0.000123792 -5.34594e-05 4.06139
0.42 0.01 -0.0210661 0.000117293 -5.40626e-05 4.10012
0.425 0.01 -0.0212707 0.000110467 -5.46326e-05 4.13629
0.43 0.01 -0.0214617 0.000103325 -5.51676e-05 4.16981
0.435 0.01 -0.0216384 9.58795e-05 -5.56661e-05 4.20057
0.44 0.01 -0.0218005 8.81447e-05 -5.61267e-05 4.22849
0.445 0.01 -0.0219473 8.01348e-05 -5.65478e-05 4.25348
0.45 0.01 -0.0220785 7.18654e-05 -5.69283e-05 4.27546
0.455 0.01 -0.0221935 6.3353e-05 -5.72668e-05 4.29436
0.46 0.01 -0.0222921 5.46153e-05 -5.75622e-05 4.3101
0.465 0.01 -0.0223737 4.56707e-05 -5.78133e-05 4.32263
0.47 0.01 -0.0224382 3.65386e-05 -5.80192e-05 4.33189
0.475 0.01 -0.0224851 2.72394e-05 -5.81791e-05 4.33784
0.48 0.01 -0.0225142 1.77939e-05 -5.8292e-05 4.34044
0.485 0.01 -0.0225254 8.22401e-06 -5.83574e-05 4.33965
0.49 0.01 -0.0225184 -1.44788e-06 -5.83746e-05 4.33546
0.495 0.01 -0.0224931 -1.11988e-05 -5.83433e-05 4.32784
0.5 0.01 -0.0224494 -2.10051e-05 -5.8263e-05 4.31678
0.505 0.01 -0.0223873 -3.08429e-05 -5.81336e-05 4.30229
0.51 0.01 -0.0223068 -4.06878e-05 -5.7955e-05 4.28437
0.515 0.01 -0.0222079 -5.05153e-05 -5.77272e-05 4.26304
0.52 0.01 -0.0220907 -6.03005e-05 -5.74503e-05 4.23832
0.525 0.01 -0.0219553 -7.00185e-05 -5.71246e-05 4.21025
0.53 0.01 -0.021802 -7.96444e-05 -5.67505e-05 4.17885
0.535 0.01 -0.0216309 -8.91535e-05 -5.63285e-05 4.14419
0.54 0.01 -0.0214423 -9.85212e-05 -5.58594e-05 4.10631
0.545 0.01 -0.0212365 -0.000107723 -5.53438e-05 4.06528
0.55 0.01 -0.0210139 -0.000116735 -5.47826e-05 4.02117
0.555 0.01 -0.0207748 -0.000125535 -5.41768e-05 3.97405
0.56 0.01 -0.0205198 -0.000134098 -5.35277e-05 3.92402
0.565 0.01 -0.0202492 -0.000142403 -5.28363e-05 3.87116
0.57 0.01 -0.0199636 -0.00015043 -5.2104e-05 3.81557
0.575 0.01 -0.0196636 -0.000158156 -5.13324e-05 3.75736
0.58 0.01 -0.0193498 -0.000165564 -5.05229e-05 3.69664
0.585 0.01 -0.0190226 -0.000172634 -4.96772e-05 3.63352
0.59 0.01 -0.0186829 -0.00017935 -4.8797e-05 3.56812
0.595 0.01 -0.0183313 -0.000185695 -4.78841e-05 3.50058
0.6 0.01 -0.0179685 -0.000191656 -4.69404e-05 3.43102
0.605 0.01 -0.0175952 -0.000197218 -4.59679e-05 3.35958
0.61 0.01 -0.0172122 -0.00020237 -4.49686e-05 3.2864
0.615 0.01 -0.0168202 -0.000207102 -4.39446e-05 3.21161
0.62 0.01 -0.01642 -0.000211404 -4.2898e-05 3.13537
0.625 0.01 -0.0160125 -0.000215271 -4.18309e-05 3.05781
0.63 0.01 -0.0155984 -0.000218695 -4.07457e-05 2.97909
0.635 0.01 -0.0151786 -0.000221674 -3.96443e-05 2.89936
0.64 0.01 -0.0147539 -0.000224205 -3.85293e-05 2.81877
0.645 0.01 -0.0143251 -0.000226287 -3.74026e-05 2.73746
0.65 0.01 -0.013893 -0.000227922 -3.62667e-05 2.65558
0.655 0.01 -0.0134584 -0.000229111 -3.51237e-05 2.57329
0.66 0.01 -0.0130223 -0.000229859 -3.39759e-05 2.49074
0.665 0.01 -0.0125853 -0.000230172 -3.28254e-05 2.40806
0.67 0.01 -0.0121482 -0.000230056 -3.16745e-05 2.3254
0.675 0.01 -0.0117119 -0.000229521 -3.05252e-05 2.24291
0.68 0.01 -0.0112771 -0.000228576 -2.93795e-05 2.16071
0.685 0.01 -0.0108445 -0.000227233 -2.82396e-05 2.07896
0.69 0.01 -0.0104149 -0.000225503 -2.71074e-05 1.99777
0.695 0.01 -0.00998898 -0.000223402 -2.59848e-05 1.91727
0.7 0.01 -0.00956735 -0.000220943 -2.48736e-05 1.83758
0.705 0.01 -0.00915069 -0.000218141 -2.37756e-05 1.75883
0.71 0.01 -0.00873962 -0.000215015 -2.26924e-05 1.68112
0.715 0.01 -0.00833471 -0.00021158 -2.16257e-05 1.60455
0.72 0.01 -0.00793651 -0.000207854 -2.05768e-05 1.52924
0.725 0.01 -0.00754555 -0.000203857 -1.95473e-05 1.45527
0.73 0.01 -0.00716231 -0.000199606 -1.85384e-05 1.38273
0.735 0.01 -0.00678724 -0.000195122 -1.75514e-05 1.31171
0.74 0.01 -0.00642076 -0.000190423 -1.65873e-05 1.24228
0.745 0.01 -0.00606324 -0.00018553 -1.56472e-05 1.17452
0.75 0.01 -0.00571504 -0.000180461 -1.47321e-05 1.10848
0.755 0.01 -0.00537645 -0.000175236 -1.38427e-05 1.04423
0.76 0.01 -0.00504777 -0.000169875 -1.29798e-05 0.981807
0.765 0.01 -0.00472921 -0.000164396 -1.21441e-05 0.921268
0.77 0.01 -0.004421 -0.000158819 -1.1336e-05 0.862649
0.775 0.01 -0.0041233 -0.000153161 -1.0556e-05 0.805983
0.78 0.01 -0.00383624 -0.00014744 -9.80441e-06 0.751297
0.785 0.01 -0.00355995 -0.000141675 -9.0816e-06 0.698611
0.79 0.01 -0.00329449 -0.00013588 -8.38771e-06 0.647942
0.795 0.01 -0.00303991 -0.000130073 -7.72283e-06 0.599299
0.8 0.01 -0.00279622 -0.000124267 -7.08701e-06 0.552688
0.805 0.01 -0.00256342 -0.000118479 -6.48018e-06 0.508109
0.81 0.01 -0.00234146 -0.000112721 -5.90223e-06 0.465556
0.815 0.01 -0.0021303 -0.000107007 -5.35298e-06 0.425021
0.82 0.01 -0.00192984 -0.000101347 -4.83217e-06 0.38649
0.825 0.01 -0.00173998 -9.57535e-05 -4.33951e-06 0.349945
0.83 0.01 -0.0015606 -9.02366e-05 -3.87463e-06 0.315366
0.835 0.01 -0.00139155 -8.48054e-05 -3.43714e-06 0.282727
0.84 0.01 -0.00123267 -7.94685e-05 -3.02657e-06 0.252001
0.845 0.01 -0.00108379 -7.42334e-05 -2.64244e-06 0.223156
0.85 0.01 -0.000944709 -6.91071e-05 -2.28422e-06 0.19616
0.855 0.01 -0.000815234 -6.40954e-05 -1.95135e-06 0.170976
0.86 0.01 -0.00069515 -5.92037e-05 -1.64324e-06 0.147566
0.865 0.01 -0.000584234 -5.44364e-05 -1.35929e-06 0.125891
0.87 0.01 -0.000482253 -4.97973e-05 -1.09885e-06 0.105907
0.875 0.01 -0.00038897 -4.52898e-05 -8.61291e-07 0.0875724
0.88 0.01 -0.000304139 -4.09163e-05 -6.45932e-07 0.0708416
0.885 0.01 -0.000227509 -3.66792e-05 -4.52102e-07 0.0556687
0.89 0.01 -0.000158826 -3.25802e-05 -2.79114e-07 0.0420066
0.895 0.01 -9.78295e-05 -2.86209e-05 -1.26275e-07 0.029807
0.9 0.01 -4.4256e-05 -2.48027e-05 7.11965e-09 0.0190208
0.905 0.01 2.1619e-06 -2.11271e-05 1.21777e-07 0.00959757
0.91 0.01 4.1696e-05 -1.75958e-05 2.18414e-07 0.0014859
0.915 0.01 7.4623e-05 -1.42109e-05 2.97758e-07 -0.00536697
0.92 0.01 0.000101226 -1.09753e-05 3.60545e-07 -0.0110154
0.925 0.01 0.000121796 -7.89309e-06 4.0753e-07 -0.0155157
0.93 0.01 0.000136635 -4.96988e-06 4.39494e-07 -0.0189267
0.935 0.01 0.000146059 -2.2135e-06 4.57246e-07 -0.0213103
0.94 0.01 0.000150402 3.65255e-07 4.61644e-07 -0.0227325
0.945 0.01 0.000150025 2.75162e-06 4.53607e-07 -0.0232647
0.95 0.01 0.00014532 4.92549e-06 4.3414e-07 -0.0229847
0.955 0.01 0.000136723 6.85959e-06 4.04362e-07 -0.0219793
0.96 0.01 0.000124728 8.51697e-06 3.65552e-07 -0.0203458
0.965 0.01 0.000109904 9.84756e-06 3.19199e-07 -0.0181954
0.97 0.01 9.29153e-05 1.07834e-05 2.67081e-07 -0.0156561
0.975 0.01 7.45529e-05 1.12325e-05 2.11368e-07 -0.0128761
0.98 0.01 5.5765e-05 1.10715e-05 1.54758e-07 -0.0100258
0.985 0.01 3.76906e-05 1.01414e-05 1.00654e-07 -0.00729574
0.99 0.01 2.1677e-05 8.26506e-06 5.33441e-08 -0.00488217
0.995 0.01 9.23337e-06 5.34939e-06 1.80037e-08 -0.00294057
1 0.01 1.79599e-06 1.80037e-06 -1.49969e-10 -0.00146256
0 0.015 0 0 -0.00143679 0
0.005 0.015 0 0 0 -255.988
0.01 0.015 -0.152782 0.184734 -0.00180015 -79.2896
0.015 0.015 -0.206043 -0.0238651 -0.00184734 -16.6501
0.02 0.015 -0.204292 -0.0574657 -0.00156149 2.3385
0.025 0.015 -0.184278 -0.052241 -0.00127269 7.97737
0.03 0.015 -0.160897 -0.0414532 -0.00103908 9.31876
0.035 0.015 -0.139132 -0.032134 -0.000858155 9.19976
0.04 0.015 -0.120244 -0.0250996 -0.000717744 8.59266
0.045 0.015 -0.104234 -0.0199136 -0.000607159 7.85278
0.05 0.015 -0.0907472 -0.0160509 -0.000518608 7.11369
0.055 0.015 -0.0793807 -0.0131135 -0.000446649 6.42439
0.06 0.015 -0.0697749 -0.0108297 -0.000387472 5.80041
0.065 0.015 -0.0616308 -0.00901847 -0.000338352 5.24378
0.07 0.015 -0.054706 -0.00755772 -0.000297287 4.7512
0.075 0.015 -0.0488039 -0.00636363 -0.000262774 4.31742
0.08 0.015 -0.0437643 -0.00537693 -0.000233651 3.93673
0.085 0.015 -0.039456 -0.00455454 -0.000209004 3.60352
0.09 0.015 -0.0357703 -0.00386431 -0.000188105 3.31258
0.095 0.015 -0.0326168 -0.00328165 -0.000170361 3.05918
0.1 0.015 -0.0299198 -0.00278738 -0.000155288 2.83905
0.105 0.015 -0.0276156 -0.0023663 -0.000142486 2.64838
0.11 0.015 -0.0256503 -0.00200615 -0.000131624 2.4838
0.115 0.015 -0.0239783 -0.001697 -0.000122425 2.34233
0.12 0.015 -0.0225607 -0.00143069 -0.000114654 2.22133
0.125 0.015 -0.0213646 -0.00120047 -0.000108117 2.11848
0.13 0.015 -0.0203618 -0.00100077 -0.000102649 2.03174
0.135 0.015 -0.0195281 -0.000826908 -9.81091e-05 1.95933
0.14 0.015 -0.0188429 -0.00067499 -9.43793e-05 1.89968
0.145 0.015 -0.0182886 -0.000541739 -9.13588e-05 1.85141
0.15 0.015 -0.0178498 -0.000424399 -8.89616e-05 1.81331
0.155 0.015 -0.0175136 -0.000320649 -8.71144e-05 1.78433
0.16 0.015 -0.0172688 -0.000228525 -8.57547e-05 1.76353
0.165 0.015 -0.0171055 -0.000146371 -8.48288e-05 1.75011
0.17 0.015 -0.0170153 -7.27809e-05 -8.42907e-05 1.74334
0.175 0.015 -0.0169912 -6.56699e-06 -8.41007e-05 1.7426
0.18 0.015 -0.0170266 5.32781e-05 -8.42247e-05 1.74733
0.185 0.015 -0.0171161 0.000107608 -8.46332e-05 1.75704
0.19 0.015 -0.017255 0.000157145 -8.53005e-05 1.7713
0.195 0.015 -0.0174389 0.000202501 -8.62044e-05 1.78972
0.2 0.015 -0.0176643 0.000244194 -8.73253e-05 1.81195
0.205 0.015 -0.0179278 0.000282658 -8.86461e-05 1.8377
0.21 0.015 -0.0182266 0.000318262 -9.01517e-05 1.86667
0.215 0.015 -0.0185579 0.000351315 -9.18285e-05 1.89863
0.22 0.015 -0.0189196 0.000382073 -9.36646e-05 1.93334
0.225 0.015 -0.0193094 0.000410753 -9.56491e-05 1.97059
0.23 0.015 -0.0197254 0.000437532 -9.7772e-05 2.01018
0.235 0.015 -0.0201658 0.000462557 -0.000100024 2.05195
0.24 0.015 -0.020629 0.000485947 -0.000102398 2.09571
0.245 0.015 -0.0211132 0.000507799 -0.000104884 2.14132
0.25 0.015 -0.0216172 0.00052819 -0.000107475 2.18861
0.255 0.015 -0.0221394 0.000547181 -0.000110166 2.23744
0.26 0.015 -0.0226784 0.000564816 -0.000112947 2.28767
0.265 0.015 -0.023233 0.00058113 -0.000115814 2.33917
0.27 0.015 -0.0238017 0.000596146 -0.000118759 2.39181
0.275 0.015 -0.0243834 0.000609879 -0.000121775 2.44544
0.28 0.015 -0.0249767 0.000622337 -0.000124857 2.49994
0.285 0.015 -0.0255804 0.000633521 -0.000127999 2.55519
0.29 0.015 -0.0261931 0.000643429 -0.000131193 2.61106
0.295 0.015 -0.0268137 0.000652054 -0.000134433 2.66743
0.3 0.015 -0.0274409 0.000659385 -0.000137714 2.72416
0.305 0.015 -0.0280733 0.00066541 -0.000141027 2.78113
0.31 0.015 -0.0287097 0.000670116 -0.000144368 2.83822
0.315 0.015 -0.0293487 0.000673488 -0.000147729 2.89531
0.32 0.015 -0.0299891 0.00067551 -0.000151103 2.95226
0.325 0.015 -0.0306296 0.000676169 -0.000154484 3.00896
0.33 0.015 -0.0312688 0.000675448 -0.000157865 3.06528
0.335 0.015 -0.0319054 0.000673336 -0.000161239 3.1211
0.34 0.015 -0.032538 0.000669819 -0.000164599 3.17629
0.345 0.015 -0.0331653 0.000664888 -0.000167938 3.23073
0.35 0.015 -0.0337859 0.000658533 -0.000171248 3.2843
0.355 0.015 -0.0343986 0.000650749 -0.000174524 3.33688
0.36 0.015 -0.0350018 0.000641532 -0.000177756 3.38835
0.365 0.015 -0.0355943 0.000630881 -0.00018094 3.43859
0.37 0.015 -0.0361747 0.000618798 -0.000184066 3.48749
0.375 0.015 -0.0367418 0.000605288 -0.000187128 3.53492
0.38 0.015 -0.0372941 0.000590361 -0.00019012 3.58079
0.385 0.015 -0.0378303 0.000574028 -0.000193033 3.62497
0.39 0.015 -0.0383492 0.000556305 -0.000195861 3.66737
0.395 0.015 -0.0388495 0.000537211 -0.000198597 3.70787
0.4 0.015 -0.03933 0.00051677 -0.000201234 3.74639
0.405 0.015 -0.0397894 0.000495008 -0.000203765 3.78281
0.41 0.015 -0.0402266 0.000471956 -0.000206185 3.81706
0.415 0.015 -0.0406404 0.00044765 -0.000208486 3.84903
0.42 0.015 -0.0410297 0.000422127 -0.000210662 3.87865
0.425 0.015 -0.0413934 0.00039543 -0.000212708 3.90583
0.43 0.015 -0.0417305 0.000367607 -0.000214618 3.9305
0.435 0.015 -0.0420401 0.000338706 -0.000216385 3.95259
0.44 0.015 -0.0423212 0.000308782 -0.000218006 3.97203
0.445 0.015 -0.042573 0.000277892 -0.000219474 3.98877
0.45 0.015 -0.0427946 0.000246098 -0.000220786 4.00274
0.455 0.015 -0.0429853 0.000213464 -0.000221937 4.01391
0.46 0.015 -0.0431445 0.000180058 -0.000222922 4.02222
0.465 0.015 -0.0432715 0.000145951 -0.000223739 4.02765
0.47 0.015 -0.0433657 0.000111216 -0.000224383 4.03016
0.475 0.015 -0.0434268 7.59308e-05 -0.000224852 4.02972
0.48 0.015 -0.0434542 4.01736e-05 -0.000225144 4.02632
0.485 0.015 -0.0434477 4.02618e-06 -0.000225255 4.01995
0.49 0.015 -0.043407 -3.24281e-05 -0.000225185 4.0106
0.495 0.015 -0.043332 -6.9104e-05 -0.000224933 3.99827
0.5 0.015 -0.0432225 -0.000105915 -0.000224496 3.98297
0.505 0.015 -0.0430786 -0.000142772 -0.000223875 3.96472
0.51 0.015 -0.0429002 -0.000179587 -0.00022307 3.94353
0.515 0.015 -0.0426877 -0.00021627 -0.000222081 3.91944
0.52 0.015 -0.0424411 -0.00025273 -0.000220909 3.89247
0.525 0.015 -0.0421608 -0.000288879 -0.000219555 3.86266
0.53 0.015 -0.0418472 -0.000324625 -0.000218021 3.83007
0.535 0.015 -0.0415008 -0.000359881 -0.00021631 3.79474
0.54 0.015 -0.0411221 -0.000394558 -0.000214424 3.75673
0.545 0.015 -0.0407117 -0.000428568 -0.000212366 3.7161
0.55 0.015 -0.0402704 -0.000461828 -0.00021014 3.67293
0.555 0.015 -0.0397989 -0.000494254 -0.00020775 3.62728
0.56 0.015 -0.039298 -0.000525765 -0.000205199 3.57924
0.565 0.015 -0.0387688 -0.000556283 -0.000202494 3.52889
0.57 0.015 -0.0382121 -0.000585734 -0.000199638 3.47632
0.575 0.015 -0.0376291 -0.000614046 -0.000196638 3.42162
0.58 0.015 -0.0370208 -0.00064115 -0.000193499 3.3649
0.585 0.015 -0.0363885 -0.000666984 -0.000190228 3.30625
0.59 0.015 -0.0357332 -0.000691487 -0.000186831 3.24577
0.595 0.015 -0.0350564 -0.000714604 -0.000183315 3.18358
0.6 0.015 -0.0343592 -0.000736284 -0.000179686 3.11979
0.605 0.015 -0.0336432 -0.000756483 -0.000175953 3.05452
0.61 0.015 -0.0329096 -0.00077516 -0.000172123 2.98787
0.615 0.015 -0.0321599 -0.00079228 -0.000168203 2.91996
0.62 0.015 -0.0313955 -0.000807813 -0.000164202 2.85093
0.625 0.015 -0.0306179 -0.000821736 -0.000160127 2.78088
0.63 0.015 -0.0298287 -0.000834031 -0.000155986 2.70993
0.635 0.015 -0.0290292 -0.000844684 -0.000151788 2.63823
0.64 0.015 -0.028221 -0.00085369 -0.00014754 2.56587
0.645 0.015 -0.0274057 -0.000861047 -0.000143252 2.49299
0.65 0.015 -0.0265847 -0.00086676 -0.000138931 2.41972
0.655 0.015 -0.0257595 -0.000870839 -0.000134586 2.34616
0.66 0.015 -0.0249316 -0.000873301 -0.000130224 2.27244
0.665 0.015 -0.0241025 -0.000874167 -0.000125854 2.19868
0.67 0.015 -0.0232736 -0.000873462 -0.000121483 2.125
0.675 0.015 -0.0224463 -0.00087122 -0.00011712 2.05151
0.68 0.015 -0.0216221 -0.000867477 -0.000112772 1.97831
0.685 0.015 -0.0208023 -0.000862273 -0.000108446 1.90553
0.69 0.015 -0.0199881 -0.000855654 -0.00010415 1.83327
0.695 0.015 -0.0191809 -0.000847668 -9.98906e-05 1.76162
0.7 0.015 -0.0183819 -0.000838371 -9.56743e-05 1.69069
0.705 0.015 -0.0175923 -0.000827817 -9.15077e-05 1.62058
0.71 0.015 -0.0168132 -0.000816066 -8.73969e-05 1.55137
0.715 0.015 -0.0160456 -0.000803181 -8.33478e-05 1.48315
0.72 0.015 -0.0152906 -0.000789225 -7.93658e-05 1.41601
0.725 0.015 -0.0145491 -0.000774266 -7.54562e-05 1.35002
0.73 0.015 -0.0138221 -0.000758372 -7.16237e-05 1.28526
0.735 0.015 -0.0131103 -0.000741611 -6.7873e-05 1.2218
0.74 0.015 -0.0124145 -0.000724055 -6.42081e-05 1.1597
0.745 0.015 -0.0117354 -0.000705773 -6.06329e-05 1.09901
0.75 0.015 -0.0110737 -0.000686837 -5.71508e-05 1.03981
0.755 0.015 -0.0104299 -0.000667316 -5.37649e-05 0.982126
0.76 0.015 -0.00980455 -0.000647282 -5.0478e-05 0.926013
0.765 0.015 -0.00919812 -0.000626803 -4.72924e-05 0.87151
0.77 0.015 -0.00861099 -0.000605948 -4.42103e-05 0.818651
0.775 0.015 -0.00804348 -0.000584782 -4.12332e-05 0.767466
0.78 0.015 -0.00749585 -0.000563371 -3.83627e-05 0.717981
0.785 0.015 -0.00696833 -0.000541779 -3.55997e-05 0.670216
0.79 0.015 -0.00646107 -0.000520064 -3.29451e-05 0.624188
0.795 0.015 -0.00597415 -0.000498287 -3.03992e-05 0.579909
0.8 0.015 -0.00550764 -0.000476504 -2.79623e-05 0.537386
0.805 0.015 -0.00506152 -0.000454766 -2.56343e-05 0.496623
0.81 0.015 -0.00463575 -0.000433125 -2.34147e-05 0.457619
0.815 0.015 -0.00423023 -0.000411629 -2.1303e-05 0.42037
0.82 0.015 -0.00384482 -0.000390321 -1.92984e-05 0.384868
0.825 0.015 -0.00347935 -0.000369243 -1.73999e-05 0.351102