Title=" Lid Driven Flow"
VARIABLES="X","Y","U","V","psi","xi"
ZONE T= "BOX", I= 201, J=201, F=POINT
0 0 0 0 0.000897045 0
0.005 0 0 0 0 0
0.01 0 0 0 0 0
0.015 0 0 0 0 161.889
0.02 0 0 0 0 176.132
0.025 0 0 0 0 155.641
0.03 0 0 0 0 133.29
0.035 0 0 0 0 115.812
0.04 0 0 0 0 102.996
0.045 0 0 0 0 93.4922
0.05 0 0 0 0 86.1861
0.055 0 0 0 0 80.3435
0.06 0 0 0 0 75.5054
0.065 0 0 0 0 71.3832
0.07 0 0 0 0 67.7905
0.075 0 0 0 0 64.6022
0.08 0 0 0 0 61.7316
0.085 0 0 0 0 59.1171
0.09 0 0 0 0 56.7136
0.095 0 0 0 0 54.4877
0.1 0 0 0 0 52.4138
0.105 0 0 0 0 50.4724
0.11 0 0 0 0 48.6479
0.115 0 0 0 0 46.9282
0.12 0 0 0 0 45.3031
0.125 0 0 0 0 43.7643
0.13 0 0 0 0 42.3048
0.135 0 0 0 0 40.9185
0.14 0 0 0 0 39.6003
0.145 0 0 0 0 38.3454
0.15 0 0 0 0 37.1497
0.155 0 0 0 0 36.0093
0.16 0 0 0 0 34.9208
0.165 0 0 0 0 33.8809
0.17 0 0 0 0 32.8866
0.175 0 0 0 0 31.935
0.18 0 0 0 0 31.0235
0.185 0 0 0 0 30.1496
0.19 0 0 0 0 29.3108
0.195 0 0 0 0 28.505
0.2 0 0 0 0 27.7299
0.205 0 0 0 0 26.9836
0.21 0 0 0 0 26.2641
0.215 0 0 0 0 25.5696
0.22 0 0 0 0 24.8983
0.225 0 0 0 0 24.2486
0.23 0 0 0 0 23.619
0.235 0 0 0 0 23.008
0.24 0 0 0 0 22.4142
0.245 0 0 0 0 21.8364
0.25 0 0 0 0 21.2733
0.255 0 0 0 0 20.7237
0.26 0 0 0 0 20.1868
0.265 0 0 0 0 19.6613
0.27 0 0 0 0 19.1465
0.275 0 0 0 0 18.6415
0.28 0 0 0 0 18.1455
0.285 0 0 0 0 17.6579
0.29 0 0 0 0 17.178
0.295 0 0 0 0 16.7051
0.3 0 0 0 0 16.2389
0.305 0 0 0 0 15.7788
0.31 0 0 0 0 15.3244
0.315 0 0 0 0 14.8755
0.32 0 0 0 0 14.4317
0.325 0 0 0 0 13.9927
0.33 0 0 0 0 13.5585
0.335 0 0 0 0 13.1288
0.34 0 0 0 0 12.7036
0.345 0 0 0 0 12.2827
0.35 0 0 0 0 11.8663
0.355 0 0 0 0 11.4543
0.36 0 0 0 0 11.0467
0.365 0 0 0 0 10.6438
0.37 0 0 0 0 10.2456
0.375 0 0 0 0 9.85218
0.38 0 0 0 0 9.46383
0.385 0 0 0 0 9.08071
0.39 0 0 0 0 8.70305
0.395 0 0 0 0 8.33106
0.4 0 0 0 0 7.965
0.405 0 0 0 0 7.60512
0.41 0 0 0 0 7.25167
0.415 0 0 0 0 6.90493
0.42 0 0 0 0 6.56514
0.425 0 0 0 0 6.23257
0.43 0 0 0 0 5.90748
0.435 0 0 0 0 5.5901
0.44 0 0 0 0 5.28067
0.445 0 0 0 0 4.9794
0.45 0 0 0 0 4.6865
0.455 0 0 0 0 4.40216
0.46 0 0 0 0 4.12653
0.465 0 0 0 0 3.85977
0.47 0 0 0 0 3.60199
0.475 0 0 0 0 3.35329
0.48 0 0 0 0 3.11373
0.485 0 0 0 0 2.88337
0.49 0 0 0 0 2.66223
0.495 0 0 0 0 2.4503
0.5 0 0 0 0 2.24755
0.505 0 0 0 0 2.05392
0.51 0 0 0 0 1.86934
0.515 0 0 0 0 1.69371
0.52 0 0 0 0 1.52689
0.525 0 0 0 0 1.36874
0.53 0 0 0 0 1.2191
0.535 0 0 0 0 1.07778
0.54 0 0 0 0 0.944585
0.545 0 0 0 0 0.819293
0.55 0 0 0 0 0.701679
0.555 0 0 0 0 0.591502
0.56 0 0 0 0 0.488514
0.565 0 0 0 0 0.392457
0.57 0 0 0 0 0.303067
0.575 0 0 0 0 0.220075
0.58 0 0 0 0 0.14321
0.585 0 0 0 0 0.072199
0.59 0 0 0 0 0.00676777
0.595 0 0 0 0 -0.0533562
0.6 0 0 0 0 -0.108444
0.605 0 0 0 0 -0.158762
0.61 0 0 0 0 -0.204574
0.615 0 0 0 0 -0.246139
0.62 0 0 0 0 -0.283708
0.625 0 0 0 0 -0.317528
0.63 0 0 0 0 -0.347837
0.635 0 0 0 0 -0.374865
0.64 0 0 0 0 -0.398836
0.645 0 0 0 0 -0.419963
0.65 0 0 0 0 -0.43845
0.655 0 0 0 0 -0.454492
0.66 0 0 0 0 -0.468274
0.665 0 0 0 0 -0.479972
0.67 0 0 0 0 -0.489751
0.675 0 0 0 0 -0.497766
0.68 0 0 0 0 -0.504162
0.685 0 0 0 0 -0.509074
0.69 0 0 0 0 -0.512626
0.695 0 0 0 0 -0.514936
0.7 0 0 0 0 -0.516108
0.705 0 0 0 0 -0.516239
0.71 0 0 0 0 -0.515419
0.715 0 0 0 0 -0.513727
0.72 0 0 0 0 -0.511236
0.725 0 0 0 0 -0.508012
0.73 0 0 0 0 -0.504113
0.735 0 0 0 0 -0.499592
0.74 0 0 0 0 -0.494496
0.745 0 0 0 0 -0.488867
0.75 0 0 0 0 -0.482744
0.755 0 0 0 0 -0.476159
0.76 0 0 0 0 -0.469144
0.765 0 0 0 0 -0.461725
0.77 0 0 0 0 -0.453927
0.775 0 0 0 0 -0.445772
0.78 0 0 0 0 -0.437282
0.785 0 0 0 0 -0.428473
0.79 0 0 0 0 -0.419366
0.795 0 0 0 0 -0.409974
0.8 0 0 0 0 -0.400315
0.805 0 0 0 0 -0.390403
0.81 0 0 0 0 -0.380253
0.815 0 0 0 0 -0.369877
0.82 0 0 0 0 -0.359289
0.825 0 0 0 0 -0.348502
0.83 0 0 0 0 -0.337529
0.835 0 0 0 0 -0.326382
0.84 0 0 0 0 -0.315073
0.845 0 0 0 0 -0.303615
0.85 0 0 0 0 -0.292021
0.855 0 0 0 0 -0.280301
0.86 0 0 0 0 -0.26847
0.865 0 0 0 0 -0.256539
0.87 0 0 0 0 -0.244522
0.875 0 0 0 0 -0.232433
0.88 0 0 0 0 -0.220286
0.885 0 0 0 0 -0.208096
0.89 0 0 0 0 -0.195881
0.895 0 0 0 0 -0.183657
0.9 0 0 0 0 -0.171446
0.905 0 0 0 0 -0.15927
0.91 0 0 0 0 -0.147152
0.915 0 0 0 0 -0.13512
0.92 0 0 0 0 -0.123206
0.925 0 0 0 0 -0.111445
0.93 0 0 0 0 -0.0998757
0.935 0 0 0 0 -0.088545
0.94 0 0 0 0 -0.0775041
0.945 0 0 0 0 -0.0668119
0.95 0 0 0 0 -0.0565354
0.955 0 0 0 0 -0.046751
0.96 0 0 0 0 -0.0375453
0.965 0 0 0 0 -0.0290164
0.97 0 0 0 0 -0.0212746
0.975 0 0 0 0 -0.0144428
0.98 0 0 0 0 -0.00865508
0.985 0 0 0 0 -0.00405194
0.99 0 0 0 0 -0.000767893
0.995 0 0 0 0 0.00109926
1 0 0 0 0 0.00156029
0 0.005 0 0 0 0
0.005 0.005 0 0 0 0
0.01 0.005 0 0 0 73.7254
0.015 0.005 0 0 0 61.9922
0.02 0.005 0 0 0 45.5434
0.025 0.005 0 0 0 33.7174
0.03 0.005 0 0 0 25.8321
0.035 0.005 0 0 0 20.4838
0.04 0.005 0 0 0 16.7131
0.045 0.005 0 0 0 13.9483
0.05 0.005 0 0 0 11.852
0.055 0.005 0 0 0 10.219
0.06 0.005 0 0 0 8.91949
0.065 0.005 0 0 0 7.86776
0.07 0.005 0 0 0 7.00481
0.075 0.005 0 0 0 6.2888
0.08 0.005 0 0 0 5.68917
0.085 0.005 0 0 0 5.18307
0.09 0.005 0 0 0 4.75311
0.095 0.005 0 0 0 4.38576
0.1 0.005 0 0 0 4.07044
0.105 0.005 0 0 0 3.79869
0.11 0.005 0 0 0 3.56372
0.115 0.005 0 0 0 3.36001
0.12 0.005 0 0 0 3.18303
0.125 0.005 0 0 0 3.02907
0.13 0.005 0 0 0 2.89501
0.135 0.005 0 0 0 2.77825
0.14 0.005 0 0 0 2.67662
0.145 0.005 0 0 0 2.58825
0.15 0.005 0 0 0 2.51157
0.155 0.005 0 0 0 2.44523
0.16 0.005 0 0 0 2.38807
0.165 0.005 0 0 0 2.33907
0.17 0.005 0 0 0 2.29738
0.175 0.005 0 0 0 2.26222
0.18 0.005 0 0 0 2.23294
0.185 0.005 0 0 0 2.20894
0.19 0.005 0 0 0 2.18971
0.195 0.005 0 0 0 2.17478
0.2 0.005 0 0 0 2.16375
0.205 0.005 0 0 0 2.15624
0.21 0.005 0 0 0 2.15193
0.215 0.005 0 0 0 2.15052
0.22 0.005 0 0 0 2.15173
0.225 0.005 0 0 0 2.15533
0.23 0.005 0 0 0 2.16109
0.235 0.005 0 0 0 2.16879
0.24 0.005 0 0 0 2.17825
0.245 0.005 0 0 0 2.18929
0.25 0.005 0 0 0 2.20175
0.255 0.005 0 0 0 2.21546
0.26 0.005 0 0 0 2.23029
0.265 0.005 0 0 0 2.2461
0.27 0.005 0 0 0 2.26275
0.275 0.005 0 0 0 2.28014
0.28 0.005 0 0 0 2.29813
0.285 0.005 0 0 0 2.31661
0.29 0.005 0 0 0 2.33549
0.295 0.005 0 0 0 2.35465
0.3 0.005 0 0 0 2.374
0.305 0.005 0 0 0 2.39344
0.31 0.005 0 0 0 2.41288
0.315 0.005 0 0 0 2.43223
0.32 0.005 0 0 0 2.45141
0.325 0.005 0 0 0 2.47032
0.33 0.005 0 0 0 2.4889
0.335 0.005 0 0 0 2.50706
0.34 0.005 0 0 0 2.52472
0.345 0.005 0 0 0 2.54182
0.35 0.005 0 0 0 2.55828
0.355 0.005 0 0 0 2.57404
0.36 0.005 0 0 0 2.58903
0.365 0.005 0 0 0 2.60319
0.37 0.005 0 0 0 2.61646
0.375 0.005 0 0 0 2.62879
0.38 0.005 0 0 0 2.64011
0.385 0.005 0 0 0 2.65038
0.39 0.005 0 0 0 2.65956
0.395 0.005 0 0 0 2.66759
0.4 0.005 0 0 0 2.67443
0.405 0.005 0 0 0 2.68005
0.41 0.005 0 0 0 2.68441
0.415 0.005 0 0 0 2.68748
0.42 0.005 0 0 0 2.68923
0.425 0.005 0 0 0 2.68963
0.43 0.005 0 0 0 2.68867
0.435 0.005 0 0 0 2.68632
0.44 0.005 0 0 0 2.68257
0.445 0.005 0 0 0 2.67741
0.45 0.005 0 0 0 2.67083
0.455 0.005 0 0 0 2.66283
0.46 0.005 0 0 0 2.6534
0.465 0.005 0 0 0 2.64255
0.47 0.005 0 0 0 2.63028
0.475 0.005 0 0 0 2.61661
0.48 0.005 0 0 0 2.60154
0.485 0.005 0 0 0 2.58509
0.49 0.005 0 0 0 2.56728
0.495 0.005 0 0 0 2.54813
0.5 0.005 0 0 0 2.52766
0.505 0.005 0 0 0 2.50591
0.51 0.005 0 0 0 2.4829
0.515 0.005 0 0 0 2.45866
0.52 0.005 0 0 0 2.43323
0.525 0.005 0 0 0 2.40665
0.53 0.005 0 0 0 2.37895
0.535 0.005 0 0 0 2.35018
0.54 0.005 0 0 0 2.32038
0.545 0.005 0 0 0 2.28959
0.55 0.005 0 0 0 2.25786
0.555 0.005 0 0 0 2.22524
0.56 0.005 0 0 0 2.19176
0.565 0.005 0 0 0 2.15749
0.57 0.005 0 0 0 2.12248
0.575 0.005 0 0 0 2.08676
0.58 0.005 0 0 0 2.0504
0.585 0.005 0 0 0 2.01344
0.59 0.005 0 0 0 1.97593
0.595 0.005 0 0 0 1.93793
0.6 0.005 0 0 0 1.89949
0.605 0.005 0 0 0 1.86065
0.61 0.005 0 0 0 1.82148
0.615 0.005 0 0 0 1.782
0.62 0.005 0 0 0 1.74228
0.625 0.005 0 0 0 1.70237
0.63 0.005 0 0 0 1.6623
0.635 0.005 0 0 0 1.62213
0.64 0.005 0 0 0 1.58189
0.645 0.005 0 0 0 1.54164
0.65 0.005 0 0 0 1.50142
0.655 0.005 0 0 0 1.46126
0.66 0.005 0 0 0 1.42121
0.665 0.005 0 0 0 1.3813
0.67 0.005 0 0 0 1.34157
0.675 0.005 0 0 0 1.30206
0.68 0.005 0 0 0 1.2628
0.685 0.005 0 0 0 1.22383
0.69 0.005 0 0 0 1.18516
0.695 0.005 0 0 0 1.14684
0.7 0.005 0 0 0 1.10889
0.705 0.005 0 0 0 1.07134
0.71 0.005 0 0 0 1.03421
0.715 0.005 0 0 0 0.997525
0.72 0.005 0 0 0 0.961309
0.725 0.005 0 0 0 0.925583
0.73 0.005 0 0 0 0.890365
0.735 0.005 0 0 0 0.855675
0.74 0.005 0 0 0 0.82153
0.745 0.005 0 0 0 0.787946
0.75 0.005 0 0 0 0.754938
0.755 0.005 0 0 0 0.72252
0.76 0.005 0 0 0 0.690705
0.765 0.005 0 0 0 0.659505
0.77 0.005 0 0 0 0.628932
0.775 0.005 0 0 0 0.598995
0.78 0.005 0 0 0 0.569705
0.785 0.005 0 0 0 0.541071
0.79 0.005 0 0 0 0.5131
0.795 0.005 0 0 0 0.485801
0.8 0.005 0 0 0 0.459181
0.805 0.005 0 0 0 0.433246
0.81 0.005 0 0 0 0.408003
0.815 0.005 0 0 0 0.383457
0.82 0.005 0 0 0 0.359614
0.825 0.005 0 0 0 0.33648
0.83 0.005 0 0 0 0.314058
0.835 0.005 0 0 0 0.292353
0.84 0.005 0 0 0 0.271371
0.845 0.005 0 0 0 0.251115
0.85 0.005 0 0 0 0.231589
0.855 0.005 0 0 0 0.212798
0.86 0.005 0 0 0 0.194746
0.865 0.005 0 0 0 0.177436
0.87 0.005 0 0 0 0.160873
0.875 0.005 0 0 0 0.145061
0.88 0.005 0 0 0 0.130004
0.885 0.005 0 0 0 0.115705
0.89 0.005 0 0 0 0.102171
0.895 0.005 0 0 0 0.0894047
0.9 0.005 0 0 0 0.0774113
0.905 0.005 0 0 0 0.0661959
0.91 0.005 0 0 0 0.0557636
0.915 0.005 0 0 0 0.0461196
0.92 0.005 0 0 0 0.0372695
0.925 0.005 0 0 0 0.0292187
0.93 0.005 0 0 0 0.0219727
0.935 0.005 0 0 0 0.0155365
0.94 0.005 0 0 0 0.00991465
0.945 0.005 0 0 0 0.00511065
0.95 0.005 0 0 0 0.00112605
0.955 0.005 0 0 0 -0.00204046
0.96 0.005 0 0 0 -0.00439478
0.965 0.005 0 0 0 -0.00594991
0.97 0.005 0 0 0 -0.00672979
0.975 0.005 0 0 0 -0.00677543
0.98 0.005 0 0 0 -0.00615465
0.985 0.005 0 0 0 -0.00497782
0.99 0.005 0 0 0 -0.00342317
0.995 0.005 0 0 0 -0.00177422
1 0.005 0 0 0 -0.000458365
0 0.01 0 0 -0.000458365 0
0.005 0.01 0 0 0 -326.275
0.01 0.01 -0.179962 0.0774903 -0.000921568 -44.4698
0.015 0.01 -0.184515 -0.0352275 -0.000774903 9.45589
0.02 0.01 -0.155744 -0.0353435 -0.000569293 19.0656
0.025 0.01 -0.126784 -0.0246392 -0.000421467 18.9665
0.03 0.01 -0.103507 -0.016542 -0.000322901 16.8394
0.035 0.01 -0.0856563 -0.0113987 -0.000256047 14.5676
0.04 0.01 -0.0719781 -0.00816928 -0.000208914 12.581
0.045 0.01 -0.0613582 -0.00607649 -0.000174354 10.9291
0.05 0.01 -0.0529758 -0.00466174 -0.000148149 9.57005
0.055 0.01 -0.0462535 -0.00366558 -0.000127737 8.44922
0.06 0.01 -0.0407862 -0.00293899 -0.000111494 7.51884
0.065 0.01 -0.0362854 -0.00239335 -9.83469e-05 6.74079
0.07 0.01 -0.0325419 -0.00197369 -8.756e-05 6.08544
0.075 0.01 -0.029401 -0.00164454 -7.86098e-05 5.52982
0.08 0.01 -0.026746 -0.00138214 -7.11144e-05 5.056
0.085 0.01 -0.0244872 -0.00117006 -6.47883e-05 4.64987
0.09 0.01 -0.022555 -0.000996621 -5.94137e-05 4.30022
0.095 0.01 -0.0208944 -0.000853313 -5.48219e-05 3.99801
0.1 0.01 -0.0194615 -0.000733825 -5.08803e-05 3.73596
0.105 0.01 -0.018221 -0.000633387 -4.74835e-05 3.5081
0.11 0.01 -0.017144 -0.000548338 -4.45463e-05 3.30952
0.115 0.01 -0.0162069 -0.000475839 -4.19999e-05 3.13615
0.12 0.01 -0.0153903 -0.000413656 -3.97877e-05 2.9846
0.125 0.01 -0.0146778 -0.000360016 -3.78632e-05 2.85201
0.13 0.01 -0.0140558 -0.000313503 -3.61874e-05 2.73599
0.135 0.01 -0.013513 -0.00027297 -3.4728e-05 2.6345
0.14 0.01 -0.0130394 -0.000237487 -3.34575e-05 2.5458
0.145 0.01 -0.012627 -0.000206292 -3.23529e-05 2.4684
0.15 0.01 -0.0122685 -0.000178758 -3.13945e-05 2.40101
0.155 0.01 -0.0119579 -0.000154365 -3.05652e-05 2.34254
0.16 0.01 -0.01169 -0.000132681 -2.98507e-05 2.29202
0.165 0.01 -0.01146 -0.000113342 -2.92383e-05 2.2486
0.17 0.01 -0.0112642 -9.60462e-05 -2.87171e-05 2.21157
0.175 0.01 -0.0110989 -8.05351e-05 -2.82777e-05 2.18026
0.18 0.01 -0.010961 -6.65914e-05 -2.79117e-05 2.15412
0.185 0.01 -0.010848 -5.40298e-05 -2.76117e-05 2.13264
0.19 0.01 -0.0107573 -4.26922e-05 -2.73713e-05 2.11537
0.195 0.01 -0.0106868 -3.24432e-05 -2.71847e-05 2.1019
0.2 0.01 -0.0106347 -2.31665e-05 -2.70467e-05 2.09189
0.205 0.01 -0.0105991 -1.47621e-05 -2.69529e-05 2.085
0.21 0.01 -0.0105785 -7.14362e-06 -2.6899e-05 2.08094
0.215 0.01 -0.0105716 -2.36219e-07 -2.68814e-05 2.07945
0.22 0.01 -0.0105771 6.02486e-06 -2.68966e-05 2.08029
0.225 0.01 -0.0105937 1.16959e-05 -2.69416e-05 2.08324
0.23 0.01 -0.0106205 1.68259e-05 -2.70136e-05 2.08808
0.235 0.01 -0.0106564 2.14575e-05 -2.71099e-05 2.09464
0.24 0.01 -0.0107005 2.56281e-05 -2.72281e-05 2.10274
0.245 0.01 -0.010752 2.93703e-05 -2.73661e-05 2.11223
0.25 0.01 -0.0108101 3.27127e-05 -2.75218e-05 2.12294
0.255 0.01 -0.0108741 3.56805e-05 -2.76933e-05 2.13474
0.26 0.01 -0.0109432 3.82957e-05 -2.78786e-05 2.1475
0.265 0.01 -0.0110169 4.0578e-05 -2.80763e-05 2.16109
0.27 0.01 -0.0110944 4.25448e-05 -2.82845e-05 2.17539
0.275 0.01 -0.0111753 4.42114e-05 -2.85018e-05 2.19029
0.28 0.01 -0.0112589 4.55915e-05 -2.87266e-05 2.20568
0.285 0.01 -0.0113447 4.66977e-05 -2.89577e-05 2.22147
0.29 0.01 -0.0114322 4.7541e-05 -2.91937e-05 2.23754
0.295 0.01 -0.011521 4.81317e-05 -2.94332e-05 2.25382
0.3 0.01 -0.0116104 4.8479e-05 -2.96751e-05 2.27021
0.305 0.01 -0.0117002 4.85916e-05 -2.99182e-05 2.28662
0.31 0.01 -0.0117898 4.84775e-05 -3.01612e-05 2.30298
0.315 0.01 -0.0118788 4.81444e-05 -3.04031e-05 2.31919
0.32 0.01 -0.0119668 4.75993e-05 -3.06428e-05 2.33519
0.325 0.01 -0.0120535 4.68493e-05 -3.08792e-05 2.35089
0.33 0.01 -0.0121384 4.59012e-05 -3.11114e-05 2.36624
0.335 0.01 -0.0122212 4.47614e-05 -3.13384e-05 2.38115
0.34 0.01 -0.0123014 4.34366e-05 -3.15592e-05 2.39557
0.345 0.01 -0.0123789 4.19332e-05 -3.1773e-05 2.40942
0.35 0.01 -0.0124532 4.02579e-05 -3.19788e-05 2.42265
0.355 0.01 -0.0125241 3.84171e-05 -3.21758e-05 2.43521
0.36 0.01 -0.0125912 3.64175e-05 -3.23631e-05 2.44702
0.365 0.01 -0.0126542 3.4266e-05 -3.25402e-05 2.45805
0.37 0.01 -0.012713 3.19694e-05 -3.2706e-05 2.46823
0.375 0.01 -0.0127671 2.95348e-05 -3.28601e-05 2.47753
0.38 0.01 -0.0128164 2.69694e-05 -3.30017e-05 2.4859
0.385 0.01 -0.0128606 2.42807e-05 -3.31301e-05 2.49329
0.39 0.01 -0.0128995 2.14761e-05 -3.32447e-05 2.49967
0.395 0.01 -0.012933 1.85635e-05 -3.33451e-05 2.50499
0.4 0.01 -0.0129607 1.55506e-05 -3.34307e-05 2.50923
0.405 0.01 -0.0129826 1.24456e-05 -3.35009e-05 2.51236
0.41 0.01 -0.0129985 9.25651e-06 -3.35554e-05 2.51434
0.415 0.01 -0.0130083 5.9918e-06 -3.35938e-05 2.51515
0.42 0.01 -0.0130117 2.65983e-06 -3.36157e-05 2.51478
0.425 0.01 -0.0130088 -7.30849e-07 -3.36207e-05 2.51319
0.43 0.01 -0.0129994 -4.17165e-06 -3.36087e-05 2.51038
0.435 0.01 -0.0129834 -7.6539e-06 -3.35793e-05 2.50633
0.44 0.01 -0.0129608 -1.11689e-05 -3.35325e-05 2.50104
0.445 0.01 -0.0129316 -1.4708e-05 -3.3468e-05 2.49449
0.45 0.01 -0.0128956 -1.82625e-05 -3.33857e-05 2.48668
0.455 0.01 -0.0128529 -2.18237e-05 -3.32857e-05 2.47762
0.46 0.01 -0.0128036 -2.53831e-05 -3.31679e-05 2.4673
0.465 0.01 -0.0127475 -2.89322e-05 -3.30322e-05 2.45572
0.47 0.01 -0.0126848 -3.24626e-05 -3.28789e-05 2.44291
0.475 0.01 -0.0126155 -3.59662e-05 -3.2708e-05 2.42886
0.48 0.01 -0.0125396 -3.9435e-05 -3.25196e-05 2.4136
0.485 0.01 -0.0124573 -4.28611e-05 -3.2314e-05 2.39713
0.49 0.01 -0.0123686 -4.62369e-05 -3.20913e-05 2.37948
0.495 0.01 -0.0122737 -4.95552e-05 -3.1852e-05 2.36066
0.5 0.01 -0.0121726 -5.28089e-05 -3.15961e-05 2.34071
0.505 0.01 -0.0120655 -5.59911e-05 -3.13242e-05 2.31964
0.51 0.01 -0.0119525 -5.90956e-05 -3.10366e-05 2.29749
0.515 0.01 -0.0118339 -6.21162e-05 -3.07336e-05 2.27428
0.52 0.01 -0.0117097 -6.50472e-05 -3.04158e-05 2.25004
0.525 0.01 -0.0115801 -6.78833e-05 -3.00835e-05 2.22482
0.53 0.01 -0.0114454 -7.06193e-05 -2.97373e-05 2.19864
0.535 0.01 -0.0113056 -7.32509e-05 -2.93776e-05 2.17154
0.54 0.01 -0.0111611 -7.57738e-05 -2.90051e-05 2.14356
0.545 0.01 -0.011012 -7.81843e-05 -2.86202e-05 2.11474
0.55 0.01 -0.0108586 -8.0479e-05 -2.82236e-05 2.08511
0.555 0.01 -0.010701 -8.2655e-05 -2.78158e-05 2.05473
0.56 0.01 -0.0105395 -8.47099e-05 -2.73974e-05 2.02363
0.565 0.01 -0.0103743 -8.66416e-05 -2.6969e-05 1.99185
0.57 0.01 -0.0102057 -8.84484e-05 -2.65312e-05 1.95944
0.575 0.01 -0.0100339 -9.01291e-05 -2.60848e-05 1.92645
0.58 0.01 -0.00985903 -9.16829e-05 -2.56302e-05 1.8929
0.585 0.01 -0.00968146 -9.31093e-05 -2.51683e-05 1.85886
0.59 0.01 -0.00950139 -9.44083e-05 -2.46994e-05 1.82436
0.595 0.01 -0.00931905 -9.55802e-05 -2.42244e-05 1.78945
0.6 0.01 -0.00913468 -9.66258e-05 -2.37439e-05 1.75417
0.605 0.01 -0.00894851 -9.75459e-05 -2.32584e-05 1.71856
0.61 0.01 -0.00876077 -9.8342e-05 -2.27687e-05 1.68268
0.615 0.01 -0.00857171 -9.90157e-05 -2.22753e-05 1.64655
0.62 0.01 -0.00838153 -9.95689e-05 -2.17788e-05 1.61022
0.625 0.01 -0.00819046 -0.000100004 -2.12798e-05 1.57373
0.63 0.01 -0.00799873 -0.000100323 -2.07789e-05 1.53713
0.635 0.01 -0.00780654 -0.000100529 -2.02768e-05 1.50045
0.64 0.01 -0.0076141 -0.000100624 -1.97739e-05 1.46373
0.645 0.01 -0.00742161 -0.000100613 -1.92707e-05 1.42701
0.65 0.01 -0.00722927 -0.000100497 -1.87679e-05 1.39032
0.655 0.01 -0.00703728 -0.000100281 -1.82659e-05 1.35369
0.66 0.01 -0.0068458 -9.9967e-05 -1.77653e-05 1.31718
0.665 0.01 -0.00665503 -9.95596e-05 -1.72664e-05 1.28079
0.67 0.01 -0.00646513 -9.9062e-05 -1.67698e-05 1.24458
0.675 0.01 -0.00627626 -9.8478e-05 -1.6276e-05 1.20856
0.68 0.01 -0.00608859 -9.78112e-05 -1.57852e-05 1.17277
0.685 0.01 -0.00590226 -9.70654e-05 -1.5298e-05 1.13723
0.69 0.01 -0.00571743 -9.62442e-05 -1.48147e-05 1.10197
0.695 0.01 -0.00553421 -9.53514e-05 -1.43357e-05 1.06702
0.7 0.01 -0.00535276 -9.43905e-05 -1.38613e-05 1.0324
0.705 0.01 -0.00517318 -9.33652e-05 -1.33919e-05 0.99814
0.71 0.01 -0.0049956 -9.22789e-05 -1.29277e-05 0.964251
0.715 0.01 -0.00482013 -9.11352e-05 -1.24692e-05 0.930758
0.72 0.01 -0.00464688 -8.99374e-05 -1.20165e-05 0.897682
0.725 0.01 -0.00447593 -8.86887e-05 -1.15699e-05 0.86504
0.73 0.01 -0.00430738 -8.73923e-05 -1.11296e-05 0.832849
0.735 0.01 -0.00414133 -8.60513e-05 -1.0696e-05 0.801127
0.74 0.01 -0.00397785 -8.46685e-05 -1.02692e-05 0.769888
0.745 0.01 -0.00381702 -8.32467e-05 -9.84938e-06 0.739148
0.75 0.01 -0.00365891 -8.17886e-05 -9.43678e-06 0.708919
0.755 0.01 -0.00350358 -8.02966e-05 -9.03155e-06 0.679214
0.76 0.01 -0.00335111 -7.87733e-05 -8.63385e-06 0.650045
0.765 0.01 -0.00320154 -7.72208e-05 -8.24385e-06 0.621423
0.77 0.01 -0.00305493 -7.56412e-05 -7.86168e-06 0.593358
0.775 0.01 -0.00291133 -7.40365e-05 -7.48747e-06 0.565861
0.78 0.01 -0.0027708 -7.24085e-05 -7.12134e-06 0.53894
0.785 0.01 -0.00263336 -7.07589e-05 -6.76341e-06 0.512604
0.79 0.01 -0.00249906 -6.90893e-05 -6.41377e-06 0.48686
0.795 0.01 -0.00236795 -6.74011e-05 -6.07253e-06 0.461716
0.8 0.01 -0.00224005 -6.56956e-05 -5.73978e-06 0.43718
0.805 0.01 -0.00211539 -6.3974e-05 -5.41559e-06 0.413257
0.81 0.01 -0.00199402 -6.22374e-05 -5.10005e-06 0.389954
0.815 0.01 -0.00187596 -6.04867e-05 -4.79322e-06 0.367277
0.82 0.01 -0.00176123 -5.87228e-05 -4.49518e-06 0.345231
0.825 0.01 -0.00164986 -5.69463e-05 -4.206e-06 0.323821
0.83 0.01 -0.00154188 -5.5158e-05 -3.92572e-06 0.303054
0.835 0.01 -0.00143731 -5.33584e-05 -3.65442e-06 0.282932
0.84 0.01 -0.00133617 -5.15478e-05 -3.39213e-06 0.263462
0.845 0.01 -0.00123849 -4.97267e-05 -3.13893e-06 0.244648
0.85 0.01 -0.00114429 -4.78953e-05 -2.89486e-06 0.226494
0.855 0.01 -0.00105358 -4.60537e-05 -2.65997e-06 0.209005
0.86 0.01 -0.000966397 -4.42021e-05 -2.43432e-06 0.192184
0.865 0.01 -0.000882749 -4.23403e-05 -2.21795e-06 0.176037
0.87 0.01 -0.000802662 -4.04685e-05 -2.01091e-06 0.160567
0.875 0.01 -0.000726155 -3.85863e-05 -1.81325e-06 0.145779
0.88 0.01 -0.000653251 -3.66936e-05 -1.62504e-06 0.131677
0.885 0.01 -0.00058397 -3.479e-05 -1.44631e-06 0.118265
0.89 0.01 -0.000518334 -3.28752e-05 -1.27713e-06 0.105547
0.895 0.01 -0.000456365 -3.09487e-05 -1.11755e-06 0.0935283
0.9 0.01 -0.000398086 -2.901e-05 -9.67633e-07 0.0822124
0.905 0.01 -0.000343519 -2.70588e-05 -8.27441e-07 0.0716037
0.91 0.01 -0.000292688 -2.50945e-05 -6.97037e-07 0.0617064
0.915 0.01 -0.000245617 -2.31168e-05 -5.76488e-07 0.0525244
0.92 0.01 -0.000202327 -2.11254e-05 -4.65862e-07 0.0440615
0.925 0.01 -0.000162842 -1.91204e-05 -3.65227e-07 0.0363209
0.93 0.01 -0.000127182 -1.71022e-05 -2.74652e-07 0.0293052
0.935 0.01 -9.53628e-05 -1.50719e-05 -1.942e-07 0.0230161
0.94 0.01 -6.73982e-05 -1.30317e-05 -1.23928e-07 0.0174537
0.945 0.01 -4.32923e-05 -1.09852e-05 -6.38787e-08 0.0126162
0.95 0.01 -2.30384e-05 -8.93844e-06 -1.40719e-08 0.00849849
0.955 0.01 -6.61247e-06 -6.90067e-06 2.55089e-08 0.00509166
0.96 0.01 6.03458e-06 -4.8865e-06 5.49374e-08 0.00238064
0.965 0.01 1.49889e-05 -2.9185e-06 7.43759e-08 0.000342032
0.97 0.01 2.03908e-05 -1.0317e-06 8.41238e-08 -0.00105939
0.975 0.01 2.246e-05 7.19074e-07 8.46939e-08 -0.00187534
0.98 0.01 2.15326e-05 2.24712e-06 7.69337e-08 -0.00218037
0.985 0.01 1.8115e-05 3.41441e-06 6.2223e-08 -0.0020793
0.99 0.01 1.29591e-05 4.00452e-06 4.27897e-08 -0.00171336
0.995 0.01 7.1558e-06 3.70601e-06 2.21777e-08 -0.00125467
1 0.01 2.2138e-06 2.21777e-06 5.72951e-09 -0.000855913
0 0.015 0 0 -0.00177104 0
0.005 0.015 0 0 0 -256.03
0.01 0.015 -0.152654 0.184515 -0.00179962 -79.3467
0.015 0.015 -0.2057 -0.0242182 -0.00184515 -16.6686
0.02 0.015 -0.203781 -0.0577308 -0.00155744 2.38476
0.025 0.015 -0.183771 -0.0522367 -0.00126784 8.07201
0.03 0.015 -0.16062 -0.0411276 -0.00103507 9.44428
0.035 0.015 -0.139303 -0.0315293 -0.000856563 9.34929
0.04 0.015 -0.121034 -0.0242981 -0.000719781 8.76748
0.045 0.015 -0.105752 -0.0190023 -0.000613582 8.05772
0.05 0.015 -0.0930462 -0.0151047 -0.000529758 7.35388
0.055 0.015 -0.0824637 -0.0121896 -0.000462535 6.70363
0.06 0.015 -0.0736083 -0.00996811 -0.000407861 6.12052
0.065 0.015 -0.0661555 -0.0082442 -0.000362853 5.60462
0.07 0.015 -0.0598465 -0.00688428 -0.000325419 5.15093
0.075 0.015 -0.0544764 -0.00579591 -0.00029401 4.75291
0.08 0.015 -0.0498824 -0.00491381 -0.000267459 4.40391
0.085 0.015 -0.0459344 -0.00419093 -0.000244871 4.09778
0.09 0.015 -0.0425281 -0.00359274 -0.000225549 3.82904
0.095 0.015 -0.0395787 -0.00309341 -0.000208943 3.59289
0.1 0.015 -0.0370174 -0.00267335 -0.000194615 3.38516
0.105 0.015 -0.0347873 -0.00231746 -0.000182209 3.20228
0.11 0.015 -0.0328416 -0.00201398 -0.000171439 3.04118
0.115 0.015 -0.0311413 -0.00175364 -0.000162069 2.89918
0.12 0.015 -0.0296538 -0.00152908 -0.000153902 2.77402
0.125 0.015 -0.0283516 -0.00133439 -0.000146777 2.66372
0.13 0.015 -0.0272114 -0.00116477 -0.000140558 2.56658
0.135 0.015 -0.0262136 -0.00101635 -0.000135129 2.48112
0.14 0.015 -0.0253413 -0.000885921 -0.000130394 2.40605
0.145 0.015 -0.0245799 -0.000770863 -0.000126269 2.34026
0.15 0.015 -0.023917 -0.000668991 -0.000122685 2.28276
0.155 0.015 -0.0233418 -0.000578487 -0.000119579 2.23269
0.16 0.015 -0.0228449 -0.000497829 -0.000116899 2.18931
0.165 0.015 -0.0224181 -0.000425738 -0.0001146 2.15194
0.17 0.015 -0.0220542 -0.000361131 -0.000112641 2.11999
0.175 0.015 -0.0217469 -0.000303092 -0.000110988 2.09293
0.18 0.015 -0.0214906 -0.000250839 -0.00010961 2.07031
0.185 0.015 -0.0212804 -0.000203706 -0.000108479 2.05169
0.19 0.015 -0.0211118 -0.000161123 -0.000107573 2.0367
0.195 0.015 -0.0209809 -0.000122598 -0.000106868 2.02501
0.2 0.015 -0.0208841 -8.77082e-05 -0.000106346 2.01631
0.205 0.015 -0.0208183 -5.6089e-05 -0.000105991 2.01032
0.21 0.015 -0.0207806 -2.74241e-05 -0.000105785 2.00679
0.215 0.015 -0.0207683 -1.43895e-06 -0.000105716 2.00549
0.22 0.015 -0.0207791 2.21049e-05 -0.000105771 2.0062
0.225 0.015 -0.0208108 4.34154e-05 -0.000105937 2.00874
0.23 0.015 -0.0208614 6.26739e-05 -0.000106205 2.01292
0.235 0.015 -0.020929 8.0039e-05 -0.000106564 2.01857
0.24 0.015 -0.0210119 9.56499e-05 -0.000107005 2.02555
0.245 0.015 -0.0211085 0.000109628 -0.00010752 2.03371
0.25 0.015 -0.0212173 0.000122082 -0.000108101 2.0429
0.255 0.015 -0.021337 0.000133105 -0.000108741 2.05302
0.26 0.015 -0.0214661 0.000142782 -0.000109433 2.06392
0.265 0.015 -0.0216035 0.000151187 -0.000110169 2.07551
0.27 0.015 -0.0217479 0.000158386 -0.000110945 2.08768
0.275 0.015 -0.0218984 0.000164437 -0.000111753 2.10032
0.28 0.015 -0.0220537 0.000169394 -0.000112589 2.11334
0.285 0.015 -0.0222129 0.000173305 -0.000113448 2.12665
0.29 0.015 -0.022375 0.000176214 -0.000114323 2.14016
0.295 0.015 -0.0225391 0.000178159 -0.00011521 2.15377
0.3 0.015 -0.0227042 0.000179177 -0.000116105 2.16743
0.305 0.015 -0.0228696 0.000179303 -0.000117002 2.18104
0.31 0.015 -0.0230343 0.000178568 -0.000117898 2.19453
0.315 0.015 -0.0231977 0.000177003 -0.000118789 2.20783
0.32 0.015 -0.0233588 0.000174636 -0.000119669 2.22087
0.325 0.015 -0.023517 0.000171495 -0.000120536 2.2336
0.33 0.015 -0.0236716 0.000167606 -0.000121385 2.24593
0.335 0.015 -0.0238219 0.000162997 -0.000122212 2.25783
0.34 0.015 -0.0239671 0.000157693 -0.000123015 2.26922
0.345 0.015 -0.0241067 0.000151721 -0.00012379 2.28005
0.35 0.015 -0.0242401 0.000145106 -0.000124533 2.29028
0.355 0.015 -0.0243666 0.000137874 -0.000125242 2.29984
0.36 0.015 -0.0244858 0.000130053 -0.000125913 2.3087
0.365 0.015 -0.024597 0.000121668 -0.000126543 2.31681
0.37 0.015 -0.0246999 0.000112748 -0.000127131 2.32413
0.375 0.015 -0.0247938 0.000103319 -0.000127672 2.33061
0.38 0.015 -0.0248783 9.34095e-05 -0.000128165 2.33623
0.385 0.015 -0.0249531 8.30492e-05 -0.000128607 2.34094
0.39 0.015 -0.0250177 7.22668e-05 -0.000128996 2.34472
0.395 0.015 -0.0250717 6.10923e-05 -0.000129331 2.34754
0.4 0.015 -0.0251149 4.95558e-05 -0.000129608 2.34936
0.405 0.015 -0.0251468 3.76884e-05 -0.000129827 2.35018
0.41 0.015 -0.0251673 2.55211e-05 -0.000129986 2.34996
0.415 0.015 -0.0251761 1.30858e-05 -0.000130084 2.34868
0.42 0.015 -0.0251729 4.14207e-07 -0.000130119 2.34634
0.425 0.015 -0.0251576 -1.24613e-05 -0.000130089 2.34292
0.43 0.015 -0.02513 -2.55083e-05 -0.000129995 2.33841
0.435 0.015 -0.0250899 -3.86942e-05 -0.000129835 2.3328
0.44 0.015 -0.0250374 -5.19866e-05 -0.00012961 2.32609
0.445 0.015 -0.0249722 -6.53528e-05 -0.000129317 2.31827
0.45 0.015 -0.0248945 -7.87606e-05 -0.000128957 2.30935
0.455 0.015 -0.0248041 -9.21779e-05 -0.000128531 2.29932
0.46 0.015 -0.0247011 -0.000105573 -0.000128037 2.2882
0.465 0.015 -0.0245855 -0.000118914 -0.000127476 2.27599
0.47 0.015 -0.0244575 -0.000132171 -0.000126849 2.2627
0.475 0.015 -0.0243171 -0.000145314 -0.000126156 2.24834
0.48 0.015 -0.0241644 -0.000158313 -0.000125397 2.23293
0.485 0.015 -0.0239997 -0.000171139 -0.000124574 2.21648
0.49 0.015 -0.0238231 -0.000183765 -0.000123687 2.19901
0.495 0.015 -0.0236348 -0.000196164 -0.000122738 2.18055
0.5 0.015 -0.0234351 -0.00020831 -0.000121727 2.16111
0.505 0.015 -0.0232242 -0.00022018 -0.000120656 2.14072
0.51 0.015 -0.0230023 -0.000231749 -0.000119527 2.11941
0.515 0.015 -0.0227699 -0.000242996 -0.00011834 2.0972
0.52 0.015 -0.0225272 -0.000253901 -0.000117098 2.07412
0.525 0.015 -0.0222746 -0.000264443 -0.000115802 2.05021
0.53 0.015 -0.0220123 -0.000274606 -0.000114455 2.02549
0.535 0.015 -0.0217408 -0.000284372 -0.000113058 1.99999
0.54 0.015 -0.0214605 -0.000293728 -0.000111613 1.97375
0.545 0.015 -0.0211717 -0.000302659 -0.000110122 1.94681
0.55 0.015 -0.0208749 -0.000311155 -0.000108587 1.9192
0.555 0.015 -0.0205705 -0.000319204 -0.000107011 1.89095
0.56 0.015 -0.0202588 -0.000326799 -0.000105396 1.86211
0.565 0.015 -0.0199404 -0.000333931 -0.000103745 1.83271
0.57 0.015 -0.0196156 -0.000340597 -0.000102058 1.80278
0.575 0.015 -0.0192849 -0.000346791 -0.00010034 1.77236
0.58 0.015 -0.0189488 -0.00035251 -9.85914e-05 1.7415
0.585 0.015 -0.0186076 -0.000357754 -9.68157e-05 1.71023
0.59 0.015 -0.0182619 -0.000362524 -9.50149e-05 1.67858
0.595 0.015 -0.017912 -0.000366819 -9.31915e-05 1.6466
0.6 0.015 -0.0175584 -0.000370644 -9.13478e-05 1.61432
0.605 0.015 -0.0172016 -0.000374002 -8.94861e-05 1.58178
0.61 0.015 -0.0168419 -0.000376899 -8.76087e-05 1.54901
0.615 0.015 -0.0164799 -0.00037934 -8.5718e-05 1.51606
0.62 0.015 -0.0161158 -0.000381334 -8.38162e-05 1.48295
0.625 0.015 -0.0157502 -0.000382888 -8.19055e-05 1.44972
0.63 0.015 -0.0153833 -0.000384011 -7.99881e-05 1.4164
0.635 0.015 -0.0150158 -0.000384715 -7.80662e-05 1.38304
0.64 0.015 -0.0146478 -0.000385008 -7.61418e-05 1.34965
0.645 0.015 -0.0142798 -0.000384903 -7.42169e-05 1.31627
0.65 0.015 -0.0139121 -0.000384411 -7.22935e-05 1.28294
0.655 0.015 -0.0135452 -0.000383544 -7.03734e-05 1.24968
0.66 0.015 -0.0131793 -0.000382317 -6.84587e-05 1.21651
0.665 0.015 -0.0128148 -0.00038074 -6.65509e-05 1.18348
0.67 0.015 -0.0124519 -0.000378829 -6.46519e-05 1.1506
0.675 0.015 -0.012091 -0.000376595 -6.27632e-05 1.1179
0.68 0.015 -0.0117325 -0.000374054 -6.08864e-05 1.08541
0.685 0.015 -0.0113764 -0.000371217 -5.90232e-05 1.05315
0.69 0.015 -0.0110233 -0.0003681 -5.71748e-05 1.02114
0.695 0.015 -0.0106732 -0.000364716 -5.53426e-05 0.989402
0.7 0.015 -0.0103264 -0.000361077 -5.3528e-05 0.95796
0.705 0.015 -0.00998318 -0.000357198 -5.17322e-05 0.926832
0.71 0.015 -0.00964374 -0.00035309 -4.99564e-05 0.896036
0.715 0.015 -0.00930829 -0.000348767 -4.82017e-05 0.865592
0.72 0.015 -0.00897702 -0.000344241 -4.64691e-05 0.835516
0.725 0.015 -0.00865011 -0.000339524 -4.47596e-05 0.805823
0.73 0.015 -0.00832774 -0.000334627 -4.30741e-05 0.776529
0.735 0.015 -0.00801008 -0.000329562 -4.14136e-05 0.747648
0.74 0.015 -0.00769726 -0.000324338 -3.97788e-05 0.719195
0.745 0.015 -0.00738945 -0.000318967 -3.81704e-05 0.69118
0.75 0.015 -0.00708677 -0.000313458 -3.65893e-05 0.663618
0.755 0.015 -0.00678935 -0.000307821 -3.5036e-05 0.636518
0.76 0.015 -0.00649731 -0.000302063 -3.35113e-05 0.609892
0.765 0.015 -0.00621076 -0.000296194 -3.20156e-05 0.583749
0.77 0.015 -0.0059298 -0.00029022 -3.05495e-05 0.558099
0.775 0.015 -0.00565453 -0.000284149 -2.91135e-05 0.532952
0.78 0.015 -0.00538503 -0.000277989 -2.77081e-05 0.508314
0.785 0.015 -0.0051214 -0.000271744 -2.63337e-05 0.484195
0.79 0.015 -0.00486372 -0.000265421 -2.49907e-05 0.460602
0.795 0.015 -0.00461204 -0.000259024 -2.36795e-05 0.437542
0.8 0.015 -0.00436646 -0.00025256 -2.24005e-05 0.415021
0.805 0.015 -0.00412702 -0.000246031 -2.1154e-05 0.393047
0.81 0.015 -0.00389379 -0.000239443 -1.99402e-05 0.371624
0.815 0.015 -0.00366684 -0.000232797 -1.87596e-05 0.35076