Title=" Lid Driven Flow"
VARIABLES="X","Y","U","V","psi","xi"
ZONE T= "BOX", I= 201, J=201, F=POINT
0 0 0 0 0.00158337 0
0.005 0 0 0 0 0
0.01 0 0 0 0 0
0.015 0 0 0 0 161.89
0.02 0 0 0 0 176.128
0.025 0 0 0 0 155.624
0.03 0 0 0 0 133.255
0.035 0 0 0 0 115.759
0.04 0 0 0 0 102.925
0.045 0 0 0 0 93.4079
0.05 0 0 0 0 86.0943
0.055 0 0 0 0 80.2507
0.06 0 0 0 0 75.4181
0.065 0 0 0 0 71.3081
0.07 0 0 0 0 67.7336
0.075 0 0 0 0 64.5689
0.08 0 0 0 0 61.7268
0.085 0 0 0 0 59.1446
0.09 0 0 0 0 56.7766
0.095 0 0 0 0 54.5887
0.1 0 0 0 0 52.5546
0.105 0 0 0 0 50.6542
0.11 0 0 0 0 48.8716
0.115 0 0 0 0 47.1938
0.12 0 0 0 0 45.6106
0.125 0 0 0 0 44.1132
0.13 0 0 0 0 42.6945
0.135 0 0 0 0 41.3481
0.14 0 0 0 0 40.0687
0.145 0 0 0 0 38.8516
0.15 0 0 0 0 37.6923
0.155 0 0 0 0 36.5872
0.16 0 0 0 0 35.5327
0.165 0 0 0 0 34.5255
0.17 0 0 0 0 33.5627
0.175 0 0 0 0 32.6416
0.18 0 0 0 0 31.7594
0.185 0 0 0 0 30.9137
0.19 0 0 0 0 30.1023
0.195 0 0 0 0 29.3229
0.2 0 0 0 0 28.5735
0.205 0 0 0 0 27.8521
0.21 0 0 0 0 27.1568
0.215 0 0 0 0 26.486
0.22 0 0 0 0 25.838
0.225 0 0 0 0 25.2111
0.23 0 0 0 0 24.6039
0.235 0 0 0 0 24.0151
0.24 0 0 0 0 23.4432
0.245 0 0 0 0 22.887
0.25 0 0 0 0 22.3455
0.255 0 0 0 0 21.8173
0.26 0 0 0 0 21.3016
0.265 0 0 0 0 20.7974
0.27 0 0 0 0 20.3037
0.275 0 0 0 0 19.8198
0.28 0 0 0 0 19.3447
0.285 0 0 0 0 18.8779
0.29 0 0 0 0 18.4187
0.295 0 0 0 0 17.9664
0.3 0 0 0 0 17.5205
0.305 0 0 0 0 17.0805
0.31 0 0 0 0 16.6459
0.315 0 0 0 0 16.2164
0.32 0 0 0 0 15.7915
0.325 0 0 0 0 15.371
0.33 0 0 0 0 14.9546
0.335 0 0 0 0 14.5421
0.34 0 0 0 0 14.1333
0.345 0 0 0 0 13.728
0.35 0 0 0 0 13.3262
0.355 0 0 0 0 12.9277
0.36 0 0 0 0 12.5326
0.365 0 0 0 0 12.1407
0.37 0 0 0 0 11.7523
0.375 0 0 0 0 11.3672
0.38 0 0 0 0 10.9857
0.385 0 0 0 0 10.6077
0.39 0 0 0 0 10.2334
0.395 0 0 0 0 9.86307
0.4 0 0 0 0 9.49675
0.405 0 0 0 0 9.13467
0.41 0 0 0 0 8.77702
0.415 0 0 0 0 8.42403
0.42 0 0 0 0 8.07592
0.425 0 0 0 0 7.73291
0.43 0 0 0 0 7.39525
0.435 0 0 0 0 7.06318
0.44 0 0 0 0 6.73694
0.445 0 0 0 0 6.41677
0.45 0 0 0 0 6.10292
0.455 0 0 0 0 5.7956
0.46 0 0 0 0 5.49505
0.465 0 0 0 0 5.20147
0.47 0 0 0 0 4.91509
0.475 0 0 0 0 4.63607
0.48 0 0 0 0 4.3646
0.485 0 0 0 0 4.10084
0.49 0 0 0 0 3.84492
0.495 0 0 0 0 3.59698
0.5 0 0 0 0 3.35711
0.505 0 0 0 0 3.12539
0.51 0 0 0 0 2.90189
0.515 0 0 0 0 2.68665
0.52 0 0 0 0 2.47969
0.525 0 0 0 0 2.281
0.53 0 0 0 0 2.09056
0.535 0 0 0 0 1.90833
0.54 0 0 0 0 1.73425
0.545 0 0 0 0 1.56822
0.55 0 0 0 0 1.41015
0.555 0 0 0 0 1.25992
0.56 0 0 0 0 1.11739
0.565 0 0 0 0 0.982416
0.57 0 0 0 0 0.854821
0.575 0 0 0 0 0.73443
0.58 0 0 0 0 0.621055
0.585 0 0 0 0 0.514493
0.59 0 0 0 0 0.414537
0.595 0 0 0 0 0.320969
0.6 0 0 0 0 0.233567
0.605 0 0 0 0 0.152104
0.61 0 0 0 0 0.0763478
0.615 0 0 0 0 0.00606576
0.62 0 0 0 0 -0.0589769
0.625 0 0 0 0 -0.119015
0.63 0 0 0 0 -0.174283
0.635 0 0 0 0 -0.225014
0.64 0 0 0 0 -0.271438
0.645 0 0 0 0 -0.313783
0.65 0 0 0 0 -0.352273
0.655 0 0 0 0 -0.387128
0.66 0 0 0 0 -0.418563
0.665 0 0 0 0 -0.446788
0.67 0 0 0 0 -0.472007
0.675 0 0 0 0 -0.49442
0.68 0 0 0 0 -0.514217
0.685 0 0 0 0 -0.531586
0.69 0 0 0 0 -0.546702
0.695 0 0 0 0 -0.559737
0.7 0 0 0 0 -0.570854
0.705 0 0 0 0 -0.580205
0.71 0 0 0 0 -0.587936
0.715 0 0 0 0 -0.594184
0.72 0 0 0 0 -0.599074
0.725 0 0 0 0 -0.602725
0.73 0 0 0 0 -0.605243
0.735 0 0 0 0 -0.606725
0.74 0 0 0 0 -0.60726
0.745 0 0 0 0 -0.606926
0.75 0 0 0 0 -0.605789
0.755 0 0 0 0 -0.603909
0.76 0 0 0 0 -0.601336
0.765 0 0 0 0 -0.59811
0.77 0 0 0 0 -0.594264
0.775 0 0 0 0 -0.589822
0.78 0 0 0 0 -0.584804
0.785 0 0 0 0 -0.57922
0.79 0 0 0 0 -0.573077
0.795 0 0 0 0 -0.566376
0.8 0 0 0 0 -0.559114
0.805 0 0 0 0 -0.551286
0.81 0 0 0 0 -0.542882
0.815 0 0 0 0 -0.533892
0.82 0 0 0 0 -0.524306
0.825 0 0 0 0 -0.514112
0.83 0 0 0 0 -0.5033
0.835 0 0 0 0 -0.491859
0.84 0 0 0 0 -0.479783
0.845 0 0 0 0 -0.467067
0.85 0 0 0 0 -0.453708
0.855 0 0 0 0 -0.43971
0.86 0 0 0 0 -0.425077
0.865 0 0 0 0 -0.409821
0.87 0 0 0 0 -0.393958
0.875 0 0 0 0 -0.377509
0.88 0 0 0 0 -0.360501
0.885 0 0 0 0 -0.342969
0.89 0 0 0 0 -0.324953
0.895 0 0 0 0 -0.306501
0.9 0 0 0 0 -0.287665
0.905 0 0 0 0 -0.26851
0.91 0 0 0 0 -0.249106
0.915 0 0 0 0 -0.22953
0.92 0 0 0 0 -0.209871
0.925 0 0 0 0 -0.190225
0.93 0 0 0 0 -0.170698
0.935 0 0 0 0 -0.151407
0.94 0 0 0 0 -0.132479
0.945 0 0 0 0 -0.114054
0.95 0 0 0 0 -0.0962836
0.955 0 0 0 0 -0.0793336
0.96 0 0 0 0 -0.0633839
0.965 0 0 0 0 -0.0486298
0.97 0 0 0 0 -0.0352826
0.975 0 0 0 0 -0.0235685
0.98 0 0 0 0 -0.0137248
0.985 0 0 0 0 -0.00599067
0.99 0 0 0 0 -0.00058292
0.995 0 0 0 0 0.00235897
1 0 0 0 0 0.00289903
0 0.005 0 0 0 0
0.005 0.005 0 0 0 0
0.01 0.005 0 0 0 73.726
0.015 0.005 0 0 0 62.0168
0.02 0.005 0 0 0 45.6017
0.025 0.005 0 0 0 33.7964
0.03 0.005 0 0 0 25.9084
0.035 0.005 0 0 0 20.5349
0.04 0.005 0 0 0 16.722
0.045 0.005 0 0 0 13.9046
0.05 0.005 0 0 0 11.7511
0.055 0.005 0 0 0 10.0608
0.06 0.005 0 0 0 8.70692
0.065 0.005 0 0 0 7.60559
0.07 0.005 0 0 0 6.69891
0.075 0.005 0 0 0 5.94546
0.08 0.005 0 0 0 5.31469
0.085 0.005 0 0 0 4.78349
0.09 0.005 0 0 0 4.33403
0.095 0.005 0 0 0 3.9523
0.1 0.005 0 0 0 3.62716
0.105 0.005 0 0 0 3.34961
0.11 0.005 0 0 0 3.11237
0.115 0.005 0 0 0 2.90944
0.12 0.005 0 0 0 2.73588
0.125 0.005 0 0 0 2.5876
0.13 0.005 0 0 0 2.46115
0.135 0.005 0 0 0 2.35367
0.14 0.005 0 0 0 2.26271
0.145 0.005 0 0 0 2.18623
0.15 0.005 0 0 0 2.12247
0.155 0.005 0 0 0 2.06994
0.16 0.005 0 0 0 2.02736
0.165 0.005 0 0 0 1.99363
0.17 0.005 0 0 0 1.9678
0.175 0.005 0 0 0 1.94904
0.18 0.005 0 0 0 1.93663
0.185 0.005 0 0 0 1.92996
0.19 0.005 0 0 0 1.92848
0.195 0.005 0 0 0 1.9317
0.2 0.005 0 0 0 1.93919
0.205 0.005 0 0 0 1.95059
0.21 0.005 0 0 0 1.96555
0.215 0.005 0 0 0 1.98378
0.22 0.005 0 0 0 2.00499
0.225 0.005 0 0 0 2.02894
0.23 0.005 0 0 0 2.05542
0.235 0.005 0 0 0 2.0842
0.24 0.005 0 0 0 2.1151
0.245 0.005 0 0 0 2.14793
0.25 0.005 0 0 0 2.18254
0.255 0.005 0 0 0 2.21876
0.26 0.005 0 0 0 2.25644
0.265 0.005 0 0 0 2.29543
0.27 0.005 0 0 0 2.33561
0.275 0.005 0 0 0 2.37682
0.28 0.005 0 0 0 2.41895
0.285 0.005 0 0 0 2.46186
0.29 0.005 0 0 0 2.50543
0.295 0.005 0 0 0 2.54954
0.3 0.005 0 0 0 2.59406
0.305 0.005 0 0 0 2.63887
0.31 0.005 0 0 0 2.68385
0.315 0.005 0 0 0 2.72888
0.32 0.005 0 0 0 2.77385
0.325 0.005 0 0 0 2.81864
0.33 0.005 0 0 0 2.86313
0.335 0.005 0 0 0 2.9072
0.34 0.005 0 0 0 2.95074
0.345 0.005 0 0 0 2.99364
0.35 0.005 0 0 0 3.03579
0.355 0.005 0 0 0 3.07706
0.36 0.005 0 0 0 3.11735
0.365 0.005 0 0 0 3.15656
0.37 0.005 0 0 0 3.19457
0.375 0.005 0 0 0 3.23128
0.38 0.005 0 0 0 3.26659
0.385 0.005 0 0 0 3.30039
0.39 0.005 0 0 0 3.33259
0.395 0.005 0 0 0 3.3631
0.4 0.005 0 0 0 3.39182
0.405 0.005 0 0 0 3.41867
0.41 0.005 0 0 0 3.44356
0.415 0.005 0 0 0 3.46641
0.42 0.005 0 0 0 3.48715
0.425 0.005 0 0 0 3.5057
0.43 0.005 0 0 0 3.52201
0.435 0.005 0 0 0 3.536
0.44 0.005 0 0 0 3.54763
0.445 0.005 0 0 0 3.55685
0.45 0.005 0 0 0 3.56361
0.455 0.005 0 0 0 3.56787
0.46 0.005 0 0 0 3.5696
0.465 0.005 0 0 0 3.56877
0.47 0.005 0 0 0 3.56537
0.475 0.005 0 0 0 3.55938
0.48 0.005 0 0 0 3.55079
0.485 0.005 0 0 0 3.5396
0.49 0.005 0 0 0 3.52583
0.495 0.005 0 0 0 3.50947
0.5 0.005 0 0 0 3.49056
0.505 0.005 0 0 0 3.46911
0.51 0.005 0 0 0 3.44516
0.515 0.005 0 0 0 3.41874
0.52 0.005 0 0 0 3.38991
0.525 0.005 0 0 0 3.3587
0.53 0.005 0 0 0 3.32517
0.535 0.005 0 0 0 3.28939
0.54 0.005 0 0 0 3.25142
0.545 0.005 0 0 0 3.21133
0.55 0.005 0 0 0 3.1692
0.555 0.005 0 0 0 3.12511
0.56 0.005 0 0 0 3.07914
0.565 0.005 0 0 0 3.03138
0.57 0.005 0 0 0 2.98192
0.575 0.005 0 0 0 2.93087
0.58 0.005 0 0 0 2.87831
0.585 0.005 0 0 0 2.82435
0.59 0.005 0 0 0 2.76908
0.595 0.005 0 0 0 2.71262
0.6 0.005 0 0 0 2.65507
0.605 0.005 0 0 0 2.59654
0.61 0.005 0 0 0 2.53713
0.615 0.005 0 0 0 2.47694
0.62 0.005 0 0 0 2.41609
0.625 0.005 0 0 0 2.35469
0.63 0.005 0 0 0 2.29283
0.635 0.005 0 0 0 2.23062
0.64 0.005 0 0 0 2.16817
0.645 0.005 0 0 0 2.10557
0.65 0.005 0 0 0 2.04293
0.655 0.005 0 0 0 1.98033
0.66 0.005 0 0 0 1.91788
0.665 0.005 0 0 0 1.85567
0.67 0.005 0 0 0 1.79377
0.675 0.005 0 0 0 1.73228
0.68 0.005 0 0 0 1.67128
0.685 0.005 0 0 0 1.61083
0.69 0.005 0 0 0 1.55103
0.695 0.005 0 0 0 1.49193
0.7 0.005 0 0 0 1.43361
0.705 0.005 0 0 0 1.37611
0.71 0.005 0 0 0 1.31951
0.715 0.005 0 0 0 1.26385
0.72 0.005 0 0 0 1.20919
0.725 0.005 0 0 0 1.15557
0.73 0.005 0 0 0 1.10302
0.735 0.005 0 0 0 1.0516
0.74 0.005 0 0 0 1.00133
0.745 0.005 0 0 0 0.952248
0.75 0.005 0 0 0 0.904372
0.755 0.005 0 0 0 0.85773
0.76 0.005 0 0 0 0.81234
0.765 0.005 0 0 0 0.76822
0.77 0.005 0 0 0 0.725382
0.775 0.005 0 0 0 0.683836
0.78 0.005 0 0 0 0.643591
0.785 0.005 0 0 0 0.604651
0.79 0.005 0 0 0 0.567018
0.795 0.005 0 0 0 0.530692
0.8 0.005 0 0 0 0.495671
0.805 0.005 0 0 0 0.46195
0.81 0.005 0 0 0 0.429523
0.815 0.005 0 0 0 0.398383
0.82 0.005 0 0 0 0.36852
0.825 0.005 0 0 0 0.339922
0.83 0.005 0 0 0 0.312578
0.835 0.005 0 0 0 0.286475
0.84 0.005 0 0 0 0.261599
0.845 0.005 0 0 0 0.237933
0.85 0.005 0 0 0 0.215463
0.855 0.005 0 0 0 0.194172
0.86 0.005 0 0 0 0.174044
0.865 0.005 0 0 0 0.15506
0.87 0.005 0 0 0 0.137204
0.875 0.005 0 0 0 0.120458
0.88 0.005 0 0 0 0.104804
0.885 0.005 0 0 0 0.0902246
0.89 0.005 0 0 0 0.0767017
0.895 0.005 0 0 0 0.0642179
0.9 0.005 0 0 0 0.0527556
0.905 0.005 0 0 0 0.0422974
0.91 0.005 0 0 0 0.032826
0.915 0.005 0 0 0 0.0243243
0.92 0.005 0 0 0 0.0167749
0.925 0.005 0 0 0 0.0101605
0.93 0.005 0 0 0 0.00446295
0.935 0.005 0 0 0 -0.000336327
0.94 0.005 0 0 0 -0.00425739
0.945 0.005 0 0 0 -0.00732229
0.95 0.005 0 0 0 -0.00955608
0.955 0.005 0 0 0 -0.0109883
0.96 0.005 0 0 0 -0.011655
0.965 0.005 0 0 0 -0.0116019
0.97 0.005 0 0 0 -0.0108883
0.975 0.005 0 0 0 -0.00959421
0.98 0.005 0 0 0 -0.00782988
0.985 0.005 0 0 0 -0.00575059
0.99 0.005 0 0 0 -0.00357807
0.995 0.005 0 0 0 -0.00162607
1 0.005 0 0 0 -0.000306496
0 0.01 0 0 -0.000306496 0
0.005 0.01 0 0 0 -326.274
0.01 0.01 -0.179988 0.077521 -0.000921576 -44.4485
0.015 0.01 -0.184624 -0.0351554 -0.00077521 9.48005
0.02 0.01 -0.155949 -0.0352756 -0.000570022 19.0828
0.025 0.01 -0.127033 -0.0246166 -0.000422455 18.9755
0.03 0.01 -0.103719 -0.0165768 -0.000323856 16.8364
0.035 0.01 -0.0857512 -0.011483 -0.000256686 14.5459
0.04 0.01 -0.0718945 -0.00828782 -0.000209025 12.5335
0.045 0.01 -0.0610568 -0.00621367 -0.000173808 10.85
0.05 0.01 -0.0524378 -0.00480481 -0.000146889 9.45567
0.055 0.01 -0.0454769 -0.00380521 -0.00012576 8.29821
0.06 0.01 -0.039781 -0.00306899 -0.000108836 7.33174
0.065 0.01 -0.0350696 -0.00251001 -9.50698e-05 6.51959
0.07 0.01 -0.0311385 -0.00207516 -8.37362e-05 5.83313
0.075 0.01 -0.0278353 -0.00173027 -7.43181e-05 5.25001
0.08 0.01 -0.0250437 -0.00145244 -6.64334e-05 4.7526
0.085 0.01 -0.0226737 -0.0012258 -5.97935e-05 4.32687
0.09 0.01 -0.0206542 -0.00103897 -5.41752e-05 3.96151
0.095 0.01 -0.0189283 -0.000883577 -4.94036e-05 3.64732
0.1 0.01 -0.0174502 -0.000753348 -4.53393e-05 3.37673
0.105 0.01 -0.0161823 -0.000643469 -4.18699e-05 3.14349
0.11 0.01 -0.015094 -0.000550198 -3.89044e-05 2.94239
0.115 0.01 -0.0141595 -0.000470585 -3.63678e-05 2.76907
0.12 0.01 -0.0133577 -0.000402281 -3.41984e-05 2.61984
0.125 0.01 -0.0126707 -0.000343396 -3.23448e-05 2.4916
0.13 0.01 -0.0120834 -0.000292397 -3.07642e-05 2.3817
0.135 0.01 -0.0115832 -0.000248034 -2.94207e-05 2.28789
0.14 0.01 -0.0111593 -0.000209278 -2.82837e-05 2.20824
0.145 0.01 -0.0108024 -0.000175283 -2.73277e-05 2.1411
0.15 0.01 -0.0105047 -0.000145342 -2.65308e-05 2.08504
0.155 0.01 -0.0102595 -0.000118869 -2.58742e-05 2.03882
0.16 0.01 -0.0100608 -9.53744e-05 -2.53419e-05 2.00138
0.165 0.01 -0.00990369 -7.44442e-05 -2.49203e-05 1.9718
0.17 0.01 -0.00978379 -5.57316e-05 -2.45973e-05 1.94926
0.175 0.01 -0.00969726 -3.89433e-05 -2.43628e-05 1.93305
0.18 0.01 -0.0096408 -2.3831e-05 -2.42078e-05 1.92256
0.185 0.01 -0.00961149 -1.01838e-05 -2.41244e-05 1.91723
0.19 0.01 -0.00960676 2.17718e-06 -2.41059e-05 1.91659
0.195 0.01 -0.00962436 1.34046e-05 -2.41461e-05 1.92019
0.2 0.01 -0.00966226 2.36281e-05 -2.42398e-05 1.92767
0.205 0.01 -0.00971869 3.29586e-05 -2.43823e-05 1.93867
0.21 0.01 -0.00979203 4.14904e-05 -2.45693e-05 1.95289
0.215 0.01 -0.00988084 4.9304e-05 -2.47971e-05 1.97006
0.22 0.01 -0.00998381 5.6468e-05 -2.50623e-05 1.98991
0.225 0.01 -0.0100998 6.30408e-05 -2.53618e-05 2.01222
0.23 0.01 -0.0102276 6.90721e-05 -2.56927e-05 2.03678
0.235 0.01 -0.0103663 7.4604e-05 -2.60524e-05 2.06338
0.24 0.01 -0.0105149 7.96723e-05 -2.64387e-05 2.09185
0.245 0.01 -0.0106727 8.43071e-05 -2.68491e-05 2.12202
0.25 0.01 -0.0108387 8.85338e-05 -2.72817e-05 2.15373
0.255 0.01 -0.0110121 9.23737e-05 -2.77345e-05 2.18682
0.26 0.01 -0.0111923 9.58445e-05 -2.82055e-05 2.22116
0.265 0.01 -0.0113786 9.89611e-05 -2.86929e-05 2.25659
0.27 0.01 -0.0115702 0.000101736 -2.91951e-05 2.293
0.275 0.01 -0.0117665 0.000104178 -2.97103e-05 2.33024
0.28 0.01 -0.0119669 0.000106297 -3.02369e-05 2.3682
0.285 0.01 -0.0121707 0.000108099 -3.07734e-05 2.40675
0.29 0.01 -0.0123774 0.000109589 -3.1318e-05 2.44578
0.295 0.01 -0.0125862 0.000110772 -3.18693e-05 2.48516
0.3 0.01 -0.0127968 0.000111652 -3.24258e-05 2.52479
0.305 0.01 -0.0130083 0.00011223 -3.29859e-05 2.56455
0.31 0.01 -0.0132204 0.000112511 -3.35482e-05 2.60432
0.315 0.01 -0.0134323 0.000112495 -3.41112e-05 2.644
0.32 0.01 -0.0136436 0.000112184 -3.46733e-05 2.68348
0.325 0.01 -0.0138536 0.000111582 -3.52331e-05 2.72266
0.33 0.01 -0.0140619 0.000110688 -3.57892e-05 2.76141
0.335 0.01 -0.0142678 0.000109506 -3.63402e-05 2.79965
0.34 0.01 -0.0144709 0.000108038 -3.68845e-05 2.83727
0.345 0.01 -0.0146705 0.000106285 -3.74207e-05 2.87417
0.35 0.01 -0.0148662 0.000104252 -3.79475e-05 2.91024
0.355 0.01 -0.0150574 0.00010194 -3.84635e-05 2.94538
0.36 0.01 -0.0152435 9.93547e-05 -3.89671e-05 2.97951
0.365 0.01 -0.0154242 9.6499e-05 -3.94572e-05 3.01253
0.37 0.01 -0.0155989 9.33782e-05 -3.99324e-05 3.04434
0.375 0.01 -0.0157671 8.99976e-05 -4.03913e-05 3.07486
0.38 0.01 -0.0159284 8.63632e-05 -4.08326e-05 3.10399
0.385 0.01 -0.0160822 8.24815e-05 -4.12552e-05 3.13167
0.39 0.01 -0.0162281 7.836e-05 -4.16577e-05 3.15779
0.395 0.01 -0.0163657 7.40065e-05 -4.2039e-05 3.18229
0.4 0.01 -0.0164946 6.94296e-05 -4.23981e-05 3.20509
0.405 0.01 -0.0166144 6.46387e-05 -4.27336e-05 3.22612
0.41 0.01 -0.0167247 5.96435e-05 -4.30448e-05 3.24531
0.415 0.01 -0.0168252 5.44549e-05 -4.33304e-05 3.2626
0.42 0.01 -0.0169155 4.90839e-05 -4.35897e-05 3.27794
0.425 0.01 -0.0169953 4.35424e-05 -4.38216e-05 3.29126
0.43 0.01 -0.0170642 3.78429e-05 -4.40254e-05 3.30252
0.435 0.01 -0.0171222 3.19983e-05 -4.42004e-05 3.31167
0.44 0.01 -0.0171688 2.60222e-05 -4.43458e-05 3.31867
0.445 0.01 -0.017204 1.99285e-05 -4.4461e-05 3.32349
0.45 0.01 -0.0172274 1.37319e-05 -4.45455e-05 3.32609
0.455 0.01 -0.017239 7.44703e-06 -4.45987e-05 3.32646
0.46 0.01 -0.0172386 1.08925e-06 -4.46203e-05 3.32457
0.465 0.01 -0.0172262 -5.32593e-06 -4.461e-05 3.3204
0.47 0.01 -0.0172016 -1.17827e-05 -4.45675e-05 3.31395
0.475 0.01 -0.0171648 -1.82652e-05 -4.44926e-05 3.30522
0.48 0.01 -0.0171158 -2.47571e-05 -4.43853e-05 3.2942
0.485 0.01 -0.0170546 -3.12423e-05 -4.42455e-05 3.2809
0.49 0.01 -0.0169812 -3.77047e-05 -4.40733e-05 3.26534
0.495 0.01 -0.0168958 -4.4128e-05 -4.38689e-05 3.24754
0.5 0.01 -0.0167984 -5.04961e-05 -4.36324e-05 3.22751
0.505 0.01 -0.0166892 -5.67933e-05 -4.33643e-05 3.20529
0.51 0.01 -0.0165683 -6.30039e-05 -4.3065e-05 3.18091
0.515 0.01 -0.016436 -6.91125e-05 -4.27348e-05 3.15441
0.52 0.01 -0.0162924 -7.51043e-05 -4.23743e-05 3.12583
0.525 0.01 -0.0161377 -8.09645e-05 -4.19842e-05 3.09522
0.53 0.01 -0.0159724 -8.66794e-05 -4.15651e-05 3.06263
0.535 0.01 -0.0157966 -9.22352e-05 -4.11178e-05 3.02813
0.54 0.01 -0.0156107 -9.76192e-05 -4.06432e-05 2.99176
0.545 0.01 -0.0154149 -0.000102819 -4.0142e-05 2.95361
0.55 0.01 -0.0152098 -0.000107823 -3.96154e-05 2.91373
0.555 0.01 -0.0149956 -0.000112621 -3.90642e-05 2.87219
0.56 0.01 -0.0147728 -0.000117202 -3.84896e-05 2.82908
0.565 0.01 -0.0145418 -0.000121558 -3.78926e-05 2.78447
0.57 0.01 -0.014303 -0.00012568 -3.72745e-05 2.73844
0.575 0.01 -0.0140568 -0.00012956 -3.66363e-05 2.69108
0.58 0.01 -0.0138037 -0.000133192 -3.59793e-05 2.64247
0.585 0.01 -0.0135443 -0.000136571 -3.53047e-05 2.5927
0.59 0.01 -0.0132789 -0.000139692 -3.46139e-05 2.54185
0.595 0.01 -0.013008 -0.000142551 -3.39082e-05 2.49002
0.6 0.01 -0.0127322 -0.000145145 -3.31888e-05 2.43729
0.605 0.01 -0.0124519 -0.000147473 -3.24571e-05 2.38376
0.61 0.01 -0.0121676 -0.000149533 -3.17144e-05 2.32952
0.615 0.01 -0.0118799 -0.000151326 -3.09621e-05 2.27466
0.62 0.01 -0.0115891 -0.000152852 -3.02015e-05 2.21927
0.625 0.01 -0.0112959 -0.000154114 -2.94339e-05 2.16344
0.63 0.01 -0.0110007 -0.000155114 -2.86607e-05 2.10725
0.635 0.01 -0.0107039 -0.000155856 -2.78831e-05 2.05081
0.64 0.01 -0.0104061 -0.000156343 -2.71024e-05 1.99419
0.645 0.01 -0.0101077 -0.000156582 -2.63199e-05 1.93748
0.65 0.01 -0.00980918 -0.000156577 -2.55369e-05 1.88076
0.655 0.01 -0.00951096 -0.000156334 -2.47544e-05 1.82411
0.66 0.01 -0.00921349 -0.000155862 -2.39738e-05 1.76762
0.665 0.01 -0.00891717 -0.000155167 -2.31961e-05 1.71135
0.67 0.01 -0.00862242 -0.000154258 -2.24224e-05 1.65539
0.675 0.01 -0.00832962 -0.000153142 -2.16537e-05 1.5998
0.68 0.01 -0.00803915 -0.000151829 -2.08912e-05 1.54465
0.685 0.01 -0.00775135 -0.000150328 -2.01356e-05 1.49002
0.69 0.01 -0.00746658 -0.000148649 -1.93881e-05 1.43595
0.695 0.01 -0.00718515 -0.0001468 -1.86493e-05 1.38251
0.7 0.01 -0.00690737 -0.000144793 -1.79202e-05 1.32975
0.705 0.01 -0.00663351 -0.000142636 -1.72016e-05 1.27773
0.71 0.01 -0.00636385 -0.00014034 -1.6494e-05 1.2265
0.715 0.01 -0.00609865 -0.000137916 -1.57983e-05 1.1761
0.72 0.01 -0.00583811 -0.000135372 -1.5115e-05 1.12657
0.725 0.01 -0.00558247 -0.000132719 -1.44447e-05 1.07796
0.73 0.01 -0.00533191 -0.000129967 -1.37879e-05 1.0303
0.735 0.01 -0.00508662 -0.000127126 -1.31451e-05 0.983617
0.74 0.01 -0.00484674 -0.000124204 -1.25168e-05 0.93795
0.745 0.01 -0.00461242 -0.000121211 -1.19032e-05 0.893323
0.75 0.01 -0.0043838 -0.000118156 -1.13047e-05 0.84976
0.755 0.01 -0.00416096 -0.000115048 -1.07217e-05 0.80728
0.76 0.01 -0.00394402 -0.000111895 -1.01543e-05 0.765901
0.765 0.01 -0.00373305 -0.000108705 -9.60281e-06 0.72564
0.77 0.01 -0.00352811 -0.000105485 -9.06732e-06 0.686507
0.775 0.01 -0.00332926 -0.000102243 -8.548e-06 0.648515
0.78 0.01 -0.00313652 -9.89864e-05 -8.04493e-06 0.611669
0.785 0.01 -0.00294994 -9.57207e-05 -7.55817e-06 0.575976
0.79 0.01 -0.00276951 -9.24524e-05 -7.08775e-06 0.541438
0.795 0.01 -0.00259525 -8.91871e-05 -6.63367e-06 0.508058
0.8 0.01 -0.00242714 -8.59301e-05 -6.1959e-06 0.475834
0.805 0.01 -0.00226517 -8.26863e-05 -5.77439e-06 0.444765
0.81 0.01 -0.00210931 -7.94601e-05 -5.36905e-06 0.414846
0.815 0.01 -0.00195954 -7.62558e-05 -4.97979e-06 0.386071
0.82 0.01 -0.0018158 -7.30769e-05 -4.6065e-06 0.358434
0.825 0.01 -0.00167806 -6.99268e-05 -4.24903e-06 0.331928
0.83 0.01 -0.00154625 -6.68086e-05 -3.90723e-06 0.306542
0.835 0.01 -0.00142032 -6.37247e-05 -3.58094e-06 0.282267
0.84 0.01 -0.00130021 -6.06774e-05 -3.26998e-06 0.259092
0.845 0.01 -0.00118585 -5.76688e-05 -2.97416e-06 0.237004
0.85 0.01 -0.00107716 -5.47003e-05 -2.69328e-06 0.215992
0.855 0.01 -0.00097408 -5.17735e-05 -2.42714e-06 0.196041
0.86 0.01 -0.000876525 -4.88892e-05 -2.17554e-06 0.17714
0.865 0.01 -0.00078442 -4.60483e-05 -1.93824e-06 0.159272
0.87 0.01 -0.000697684 -4.32514e-05 -1.71504e-06 0.142425
0.875 0.01 -0.000616237 -4.04988e-05 -1.50571e-06 0.126584
0.88 0.01 -0.000539997 -3.77905e-05 -1.31004e-06 0.111733
0.885 0.01 -0.000468882 -3.51267e-05 -1.12779e-06 0.0978572
0.89 0.01 -0.000402809 -3.2507e-05 -9.58758e-07 0.0849421
0.895 0.01 -0.000341696 -2.99313e-05 -8.0271e-07 0.0729721
0.9 0.01 -0.000285461 -2.73993e-05 -6.59431e-07 0.0619315
0.905 0.01 -0.00023402 -2.49105e-05 -5.28704e-07 0.0518049
0.91 0.01 -0.000187292 -2.2465e-05 -4.10312e-07 0.0425763
0.915 0.01 -0.000145192 -2.00626e-05 -3.04042e-07 0.0342294
0.92 0.01 -0.000107636 -1.77036e-05 -2.09675e-07 0.0267475
0.925 0.01 -7.45366e-05 -1.53888e-05 -1.26995e-07 0.0201132
0.93 0.01 -4.58032e-05 -1.31199e-05 -5.57769e-08 0.0143079
0.935 0.01 -2.134e-05 -1.08994e-05 4.21318e-09 0.00931186
0.94 0.01 -1.04297e-06 -8.73154e-06 5.32256e-08 0.00510305
0.945 0.01 1.52033e-05 -6.62254e-06 9.15358e-08 0.00165684
0.95 0.01 2.75309e-05 -4.58179e-06 1.19457e-07 -0.00105522
0.955 0.01 3.6095e-05 -2.62307e-06 1.37359e-07 -0.00306676
0.96 0.01 4.10838e-05 -7.66417e-07 1.45692e-07 -0.00441837
0.965 0.01 4.27307e-05 9.58875e-07 1.45027e-07 -0.00516013
0.97 0.01 4.13335e-05 2.50989e-06 1.36106e-07 -0.00535482
0.975 0.01 3.72786e-05 3.82323e-06 1.19929e-07 -0.00508206
0.98 0.01 3.10764e-05 4.8047e-06 9.78746e-08 -0.00444321
0.985 0.01 2.34074e-05 5.31488e-06 7.18829e-08 -0.0035658
0.99 0.01 1.5178e-05 5.1557e-06 4.4726e-08 -0.00260344
0.995 0.01 7.57067e-06 4.08948e-06 2.03258e-08 -0.00171844
1 0.01 2.02843e-06 2.03258e-06 3.83112e-09 -0.00101144
0 0.015 0 0 -0.00162275 0
0.005 0.015 0 0 0 -256.01
0.01 0.015 -0.152718 0.184624 -0.00179988 -79.3175
0.015 0.015 -0.205874 -0.0240387 -0.00184624 -16.658
0.02 0.015 -0.204043 -0.0575916 -0.00155949 2.36308
0.025 0.015 -0.184037 -0.0522302 -0.00127033 8.02589
0.03 0.015 -0.160777 -0.0412817 -0.00103719 9.38244
0.035 0.015 -0.139242 -0.0318246 -0.000857512 9.27521
0.04 0.015 -0.120666 -0.0246944 -0.000718945 8.68051
0.045 0.015 -0.105022 -0.0194567 -0.000610568 7.95542
0.05 0.015 -0.0919239 -0.0155798 -0.000524378 7.23362
0.055 0.015 -0.0809455 -0.0126569 -0.000454769 6.56342
0.06 0.015 -0.0717083 -0.0104073 -0.000397809 5.95936
0.065 0.015 -0.0639011 -0.00864238 -0.000350696 5.42249
0.07 0.015 -0.0572736 -0.00723429 -0.000311385 4.94868
0.075 0.015 -0.0516253 -0.00609477 -0.000278352 4.53204
0.08 0.015 -0.0467951 -0.00516153 -0.000250437 4.16642
0.085 0.015 -0.0426529 -0.0043895 -0.000226736 3.84594
0.09 0.015 -0.0390927 -0.00374535 -0.000206541 3.56529
0.095 0.015 -0.0360272 -0.00320392 -0.000189282 3.3197
0.1 0.015 -0.0333845 -0.00274588 -0.000174501 3.105
0.105 0.015 -0.0311048 -0.00235614 -0.000161823 2.9175
0.11 0.015 -0.029138 -0.00202276 -0.000150939 2.75399
0.115 0.015 -0.0274419 -0.00173621 -0.000141595 2.61168
0.12 0.015 -0.025981 -0.00148878 -0.000133576 2.48811
0.125 0.015 -0.0247253 -0.00127423 -0.000126706 2.38115
0.13 0.015 -0.0236491 -0.0010874 -0.000120834 2.28895
0.135 0.015 -0.0227305 -0.000924077 -0.000115831 2.20986
0.14 0.015 -0.0219508 -0.00078075 -0.000111592 2.14247
0.145 0.015 -0.0212938 -0.0006545 -0.000108023 2.08553
0.15 0.015 -0.0207456 -0.000542887 -0.000105047 2.03795
0.155 0.015 -0.0202942 -0.000443864 -0.000102594 1.99875
0.16 0.015 -0.0199293 -0.000355707 -0.000100607 1.9671
0.165 0.015 -0.0196416 -0.000276958 -9.90365e-05 1.94224
0.17 0.015 -0.0194234 -0.000206384 -9.78374e-05 1.92352
0.175 0.015 -0.0192676 -0.000142938 -9.69722e-05 1.91034
0.18 0.015 -0.0191682 -8.57284e-05 -9.64076e-05 1.90219
0.185 0.015 -0.0191199 -3.39963e-05 -9.61145e-05 1.89859
0.19 0.015 -0.0191178 1.2907e-05 -9.60673e-05 1.89915
0.195 0.015 -0.0191578 5.55353e-05 -9.62432e-05 1.90347
0.2 0.015 -0.019236 9.43626e-05 -9.66223e-05 1.91123
0.205 0.015 -0.0193492 0.000129794 -9.71866e-05 1.92212
0.21 0.015 -0.0194943 0.000162177 -9.792e-05 1.93587
0.215 0.015 -0.0196686 0.000191809 -9.88081e-05 1.95222
0.22 0.015 -0.0198695 0.000218943 -9.98379e-05 1.97095
0.225 0.015 -0.0200948 0.000243796 -0.000100997 1.99183
0.23 0.015 -0.0203424 0.000266554 -0.000102276 2.01469
0.235 0.015 -0.0206104 0.000287374 -0.000103663 2.03933
0.24 0.015 -0.020897 0.000306392 -0.000105149 2.06558
0.245 0.015 -0.0212005 0.00032372 -0.000106727 2.09328
0.25 0.015 -0.0215192 0.000339455 -0.000108387 2.12228
0.255 0.015 -0.0218517 0.00035368 -0.000110121 2.15245
0.26 0.015 -0.0221966 0.000366462 -0.000111923 2.18363
0.265 0.015 -0.0225525 0.000377859 -0.000113786 2.2157
0.27 0.015 -0.022918 0.00038792 -0.000115702 2.24853
0.275 0.015 -0.023292 0.000396683 -0.000117665 2.282
0.28 0.015 -0.023673 0.000404184 -0.000119669 2.31599
0.285 0.015 -0.02406 0.000410449 -0.000121707 2.35039
0.29 0.015 -0.0244517 0.000415502 -0.000123774 2.38508
0.295 0.015 -0.024847 0.000419362 -0.000125863 2.41996
0.3 0.015 -0.0252447 0.000422045 -0.000127968 2.45492
0.305 0.015 -0.0256437 0.000423566 -0.000130084 2.48984
0.31 0.015 -0.0260429 0.000423937 -0.000132204 2.52464
0.315 0.015 -0.0264412 0.000423169 -0.000134324 2.55921
0.32 0.015 -0.0268375 0.000421272 -0.000136436 2.59344
0.325 0.015 -0.0272307 0.000418256 -0.000138537 2.62725
0.33 0.015 -0.0276197 0.000414133 -0.000140619 2.66053
0.335 0.015 -0.0280036 0.000408913 -0.000142679 2.6932
0.34 0.015 -0.0283813 0.000402607 -0.000144709 2.72516
0.345 0.015 -0.0287518 0.000395228 -0.000146706 2.75632
0.35 0.015 -0.029114 0.000386791 -0.000148662 2.7866
0.355 0.015 -0.029467 0.000377311 -0.000150574 2.81591
0.36 0.015 -0.0298098 0.000366806 -0.000152436 2.84416
0.365 0.015 -0.0301415 0.000355294 -0.000154243 2.87129
0.37 0.015 -0.0304611 0.000342797 -0.00015599 2.8972
0.375 0.015 -0.0307678 0.000329338 -0.000157672 2.92183
0.38 0.015 -0.0310607 0.000314943 -0.000159285 2.9451
0.385 0.015 -0.0313388 0.00029964 -0.000160823 2.96695
0.39 0.015 -0.0316015 0.000283458 -0.000162282 2.98731
0.395 0.015 -0.031848 0.000266431 -0.000163659 3.00612
0.4 0.015 -0.0320774 0.000248594 -0.000164948 3.02332
0.405 0.015 -0.0322891 0.000229983 -0.000166146 3.03885
0.41 0.015 -0.0324824 0.000210638 -0.000167249 3.05266
0.415 0.015 -0.0326566 0.000190601 -0.000168253 3.06471
0.42 0.015 -0.0328113 0.000169916 -0.000169156 3.07496
0.425 0.015 -0.0329457 0.000148629 -0.000169954 3.08335
0.43 0.015 -0.0330595 0.000126787 -0.000170644 3.08987
0.435 0.015 -0.0331521 0.000104442 -0.000171223 3.09447
0.44 0.015 -0.0332232 8.16438e-05 -0.00017169 3.09714
0.445 0.015 -0.0332724 5.84465e-05 -0.000172041 3.09785
0.45 0.015 -0.0332994 3.49047e-05 -0.000172276 3.09658
0.455 0.015 -0.033304 1.10742e-05 -0.000172392 3.09332
0.46 0.015 -0.0332858 -1.29877e-05 -0.000172388 3.08806
0.465 0.015 -0.0332449 -3.72231e-05 -0.000172263 3.0808
0.47 0.015 -0.0331811 -6.15734e-05 -0.000172017 3.07154
0.475 0.015 -0.0330944 -8.59792e-05 -0.000171649 3.06028
0.48 0.015 -0.0329847 -0.000110381 -0.000171159 3.04704
0.485 0.015 -0.0328522 -0.00013472 -0.000170547 3.03183
0.49 0.015 -0.0326969 -0.000158935 -0.000169814 3.01467
0.495 0.015 -0.0325191 -0.000182969 -0.00016896 2.99557
0.5 0.015 -0.032319 -0.000206762 -0.000167986 2.97458
0.505 0.015 -0.0320969 -0.000230257 -0.000166894 2.95171
0.51 0.015 -0.0318531 -0.000253397 -0.000165685 2.927
0.515 0.015 -0.0315879 -0.000276128 -0.000164361 2.9005
0.52 0.015 -0.0313019 -0.000298394 -0.000162925 2.87225
0.525 0.015 -0.0309956 -0.000320145 -0.000161379 2.84229
0.53 0.015 -0.0306693 -0.000341329 -0.000159726 2.81067
0.535 0.015 -0.0303238 -0.000361899 -0.000157968 2.77745
0.54 0.015 -0.0299596 -0.000381808 -0.000156108 2.74268
0.545 0.015 -0.0295774 -0.000401013 -0.000154151 2.70643
0.55 0.015 -0.0291779 -0.000419474 -0.0001521 2.66874
0.555 0.015 -0.0287617 -0.000437151 -0.000149958 2.6297
0.56 0.015 -0.0283297 -0.000454011 -0.00014773 2.58935
0.565 0.015 -0.0278827 -0.000470021 -0.00014542 2.54778
0.57 0.015 -0.0274214 -0.000485152 -0.000143031 2.50505
0.575 0.015 -0.0269467 -0.000499377 -0.00014057 2.46124
0.58 0.015 -0.0264595 -0.000512676 -0.000138039 2.41641
0.585 0.015 -0.0259606 -0.000525028 -0.000135444 2.37065
0.59 0.015 -0.0254508 -0.000536418 -0.00013279 2.32402
0.595 0.015 -0.0249312 -0.000546833 -0.000130082 2.27661
0.6 0.015 -0.0244027 -0.000556264 -0.000127323 2.22848
0.605 0.015 -0.023866 -0.000564707 -0.00012452 2.17972
0.61 0.015 -0.0233222 -0.000572158 -0.000121678 2.13041
0.615 0.015 -0.0227722 -0.000578619 -0.0001188 2.08061
0.62 0.015 -0.0222168 -0.000584093 -0.000115893 2.03041
0.625 0.015 -0.021657 -0.00058859 -0.00011296 1.97987
0.63 0.015 -0.0210938 -0.000592118 -0.000110008 1.92908
0.635 0.015 -0.0205278 -0.000594692 -0.00010704 1.87811
0.64 0.015 -0.0199602 -0.000596327 -0.000104062 1.82702
0.645 0.015 -0.0193916 -0.000597042 -0.000101078 1.77589
0.65 0.015 -0.0188229 -0.000596859 -9.80929e-05 1.7248
0.655 0.015 -0.018255 -0.000595801 -9.51106e-05 1.67379
0.66 0.015 -0.0176887 -0.000593893 -9.21358e-05 1.62295
0.665 0.015 -0.0171246 -0.000591165 -8.91726e-05 1.57233
0.67 0.015 -0.0165636 -0.000587644 -8.62251e-05 1.522
0.675 0.015 -0.0160064 -0.000583362 -8.3297e-05 1.47201
0.68 0.015 -0.0154537 -0.000578351 -8.03923e-05 1.42243
0.685 0.015 -0.014906 -0.000572646 -7.75143e-05 1.3733
0.69 0.015 -0.0143641 -0.00056628 -7.46665e-05 1.32467
0.695 0.015 -0.0138285 -0.000559289 -7.18522e-05 1.2766
0.7 0.015 -0.0132998 -0.000551709 -6.90743e-05 1.22914
0.705 0.015 -0.0127785 -0.000543576 -6.63357e-05 1.18232
0.71 0.015 -0.0122651 -0.000534927 -6.36391e-05 1.13619
0.715 0.015 -0.0117601 -0.000525799 -6.0987e-05 1.09079
0.72 0.015 -0.0112638 -0.000516228 -5.83816e-05 1.04615
0.725 0.015 -0.0107768 -0.00050625 -5.58252e-05 1.00231
0.73 0.015 -0.0102993 -0.000495902 -5.33196e-05 0.959295
0.735 0.015 -0.00983173 -0.000485218 -5.08666e-05 0.917137
0.74 0.015 -0.00937431 -0.000474233 -4.84678e-05 0.875861
0.745 0.015 -0.00892733 -0.000462981 -4.61246e-05 0.83549
0.75 0.015 -0.00849104 -0.000451494 -4.38383e-05 0.796045
0.755 0.015 -0.00806563 -0.000439804 -4.16099e-05 0.757544
0.76 0.015 -0.00765129 -0.000427942 -3.94405e-05 0.720004
0.765 0.015 -0.00724816 -0.000415937 -3.73307e-05 0.683438
0.77 0.015 -0.00685637 -0.000403817 -3.52813e-05 0.647858
0.775 0.015 -0.00647602 -0.00039161 -3.32927e-05 0.613273
0.78 0.015 -0.00610718 -0.000379339 -3.13654e-05 0.579693
0.785 0.015 -0.00574991 -0.00036703 -2.94995e-05 0.547122
0.79 0.015 -0.00540424 -0.000354704 -2.76952e-05 0.515565
0.795 0.015 -0.00507018 -0.000342383 -2.59526e-05 0.485023
0.8 0.015 -0.00474772 -0.000330086 -2.42715e-05 0.455499
0.805 0.015 -0.00443684 -0.000317832 -2.26518e-05 0.426991
0.81 0.015 -0.00413749 -0.000305638 -2.10932e-05 0.399498
0.815 0.015 -0.00384963 -0.000293517 -1.95954e-05 0.373016
0.82 0.015 -0.00357317 -0.000281485 -1.8158e-05 0.347541