Title=" Lid Driven Flow"
VARIABLES="X","Y","U","V","psi","xi"
ZONE T= "BOX", I= 201, J=201, F=POINT
0 0 0 0 0.00153844 0
0.005 0 0 0 0 0
0.01 0 0 0 0 0
0.015 0 0 0 0 161.89
0.02 0 0 0 0 176.128
0.025 0 0 0 0 155.625
0.03 0 0 0 0 133.257
0.035 0 0 0 0 115.762
0.04 0 0 0 0 102.929
0.045 0 0 0 0 93.4126
0.05 0 0 0 0 86.0994
0.055 0 0 0 0 80.2558
0.06 0 0 0 0 75.4229
0.065 0 0 0 0 71.3122
0.07 0 0 0 0 67.7367
0.075 0 0 0 0 64.5707
0.08 0 0 0 0 61.7269
0.085 0 0 0 0 59.1429
0.09 0 0 0 0 56.773
0.095 0 0 0 0 54.5829
0.1 0 0 0 0 52.5467
0.105 0 0 0 0 50.644
0.11 0 0 0 0 48.859
0.115 0 0 0 0 47.179
0.12 0 0 0 0 45.5934
0.125 0 0 0 0 44.0938
0.13 0 0 0 0 42.6728
0.135 0 0 0 0 41.3243
0.14 0 0 0 0 40.0427
0.145 0 0 0 0 38.8235
0.15 0 0 0 0 37.6622
0.155 0 0 0 0 36.5552
0.16 0 0 0 0 35.4988
0.165 0 0 0 0 34.4899
0.17 0 0 0 0 33.5254
0.175 0 0 0 0 32.6025
0.18 0 0 0 0 31.7188
0.185 0 0 0 0 30.8716
0.19 0 0 0 0 30.0587
0.195 0 0 0 0 29.2779
0.2 0 0 0 0 28.5271
0.205 0 0 0 0 27.8043
0.21 0 0 0 0 27.1078
0.215 0 0 0 0 26.4358
0.22 0 0 0 0 25.7865
0.225 0 0 0 0 25.1584
0.23 0 0 0 0 24.5501
0.235 0 0 0 0 23.9601
0.24 0 0 0 0 23.3871
0.245 0 0 0 0 22.8298
0.25 0 0 0 0 22.2871
0.255 0 0 0 0 21.7579
0.26 0 0 0 0 21.2411
0.265 0 0 0 0 20.7358
0.27 0 0 0 0 20.241
0.275 0 0 0 0 19.756
0.28 0 0 0 0 19.2799
0.285 0 0 0 0 18.8121
0.29 0 0 0 0 18.3518
0.295 0 0 0 0 17.8984
0.3 0 0 0 0 17.4515
0.305 0 0 0 0 17.0104
0.31 0 0 0 0 16.5748
0.315 0 0 0 0 16.1443
0.32 0 0 0 0 15.7185
0.325 0 0 0 0 15.297
0.33 0 0 0 0 14.8797
0.335 0 0 0 0 14.4663
0.34 0 0 0 0 14.0566
0.345 0 0 0 0 13.6504
0.35 0 0 0 0 13.2478
0.355 0 0 0 0 12.8486
0.36 0 0 0 0 12.4527
0.365 0 0 0 0 12.0603
0.37 0 0 0 0 11.6712
0.375 0 0 0 0 11.2856
0.38 0 0 0 0 10.9036
0.385 0 0 0 0 10.5252
0.39 0 0 0 0 10.1507
0.395 0 0 0 0 9.78011
0.4 0 0 0 0 9.41365
0.405 0 0 0 0 9.05153
0.41 0 0 0 0 8.69394
0.415 0 0 0 0 8.3411
0.42 0 0 0 0 7.99323
0.425 0 0 0 0 7.65058
0.43 0 0 0 0 7.31338
0.435 0 0 0 0 6.98188
0.44 0 0 0 0 6.65632
0.445 0 0 0 0 6.33693
0.45 0 0 0 0 6.02397
0.455 0 0 0 0 5.71765
0.46 0 0 0 0 5.4182
0.465 0 0 0 0 5.12583
0.47 0 0 0 0 4.84075
0.475 0 0 0 0 4.56314
0.48 0 0 0 0 4.29317
0.485 0 0 0 0 4.03099
0.49 0 0 0 0 3.77675
0.495 0 0 0 0 3.53055
0.5 0 0 0 0 3.2925
0.505 0 0 0 0 3.06267
0.51 0 0 0 0 2.84112
0.515 0 0 0 0 2.62787
0.52 0 0 0 0 2.42296
0.525 0 0 0 0 2.22635
0.53 0 0 0 0 2.03803
0.535 0 0 0 0 1.85794
0.54 0 0 0 0 1.68601
0.545 0 0 0 0 1.52215
0.55 0 0 0 0 1.36625
0.555 0 0 0 0 1.21818
0.56 0 0 0 0 1.07781
0.565 0 0 0 0 0.944968
0.57 0 0 0 0 0.819488
0.575 0 0 0 0 0.701184
0.58 0 0 0 0 0.589861
0.585 0 0 0 0 0.485314
0.59 0 0 0 0 0.387329
0.595 0 0 0 0 0.295686
0.6 0 0 0 0 0.210158
0.605 0 0 0 0 0.130515
0.61 0 0 0 0 0.0565221
0.615 0 0 0 0 -0.0120553
0.62 0 0 0 0 -0.0754543
0.625 0 0 0 0 -0.133911
0.63 0 0 0 0 -0.187662
0.635 0 0 0 0 -0.236941
0.64 0 0 0 0 -0.281978
0.645 0 0 0 0 -0.323001
0.65 0 0 0 0 -0.360235
0.655 0 0 0 0 -0.3939
0.66 0 0 0 0 -0.424209
0.665 0 0 0 0 -0.451372
0.67 0 0 0 0 -0.475593
0.675 0 0 0 0 -0.497069
0.68 0 0 0 0 -0.515989
0.685 0 0 0 0 -0.532538
0.69 0 0 0 0 -0.546892
0.695 0 0 0 0 -0.559217
0.7 0 0 0 0 -0.569674
0.705 0 0 0 0 -0.578413
0.71 0 0 0 0 -0.585578
0.715 0 0 0 0 -0.591301
0.72 0 0 0 0 -0.595704
0.725 0 0 0 0 -0.598903
0.73 0 0 0 0 -0.601001
0.735 0 0 0 0 -0.602093
0.74 0 0 0 0 -0.602262
0.745 0 0 0 0 -0.601584
0.75 0 0 0 0 -0.600124
0.755 0 0 0 0 -0.597938
0.76 0 0 0 0 -0.595074
0.765 0 0 0 0 -0.591569
0.77 0 0 0 0 -0.587457
0.775 0 0 0 0 -0.58276
0.78 0 0 0 0 -0.577497
0.785 0 0 0 0 -0.571677
0.79 0 0 0 0 -0.565308
0.795 0 0 0 0 -0.558391
0.8 0 0 0 0 -0.550925
0.805 0 0 0 0 -0.542904
0.81 0 0 0 0 -0.534322
0.815 0 0 0 0 -0.525169
0.82 0 0 0 0 -0.515437
0.825 0 0 0 0 -0.505116
0.83 0 0 0 0 -0.494199
0.835 0 0 0 0 -0.482677
0.84 0 0 0 0 -0.470545
0.845 0 0 0 0 -0.457801
0.85 0 0 0 0 -0.444444
0.855 0 0 0 0 -0.430479
0.86 0 0 0 0 -0.415913
0.865 0 0 0 0 -0.400758
0.87 0 0 0 0 -0.385031
0.875 0 0 0 0 -0.368755
0.88 0 0 0 0 -0.351957
0.885 0 0 0 0 -0.33467
0.89 0 0 0 0 -0.316934
0.895 0 0 0 0 -0.298796
0.9 0 0 0 0 -0.280309
0.905 0 0 0 0 -0.261533
0.91 0 0 0 0 -0.242535
0.915 0 0 0 0 -0.223391
0.92 0 0 0 0 -0.204185
0.925 0 0 0 0 -0.185011
0.93 0 0 0 0 -0.165969
0.935 0 0 0 0 -0.147171
0.94 0 0 0 0 -0.12874
0.945 0 0 0 0 -0.110809
0.95 0 0 0 0 -0.0935243
0.955 0 0 0 0 -0.0770448
0.96 0 0 0 0 -0.0615436
0.965 0 0 0 0 -0.047209
0.97 0 0 0 0 -0.0342448
0.975 0 0 0 0 -0.0228693
0.98 0 0 0 0 -0.013312
0.985 0 0 0 0 -0.00580437
0.99 0 0 0 0 -0.000556338
0.995 0 0 0 0 0.00229706
1 0 0 0 0 0.00281839
0 0.005 0 0 0 0
0.005 0.005 0 0 0 0
0.01 0.005 0 0 0 73.726
0.015 0.005 0 0 0 62.0151
0.02 0.005 0 0 0 45.5978
0.025 0.005 0 0 0 33.7911
0.03 0.005 0 0 0 25.9034
0.035 0.005 0 0 0 20.5317
0.04 0.005 0 0 0 16.7217
0.045 0.005 0 0 0 13.9079
0.05 0.005 0 0 0 11.7583
0.055 0.005 0 0 0 10.0718
0.06 0.005 0 0 0 8.72157
0.065 0.005 0 0 0 7.62351
0.07 0.005 0 0 0 6.71967
0.075 0.005 0 0 0 5.96862
0.08 0.005 0 0 0 5.33982
0.085 0.005 0 0 0 4.81016
0.09 0.005 0 0 0 4.36187
0.095 0.005 0 0 0 3.98095
0.1 0.005 0 0 0 3.65632
0.105 0.005 0 0 0 3.37902
0.11 0.005 0 0 0 3.14179
0.115 0.005 0 0 0 2.93869
0.12 0.005 0 0 0 2.7648
0.125 0.005 0 0 0 2.61604
0.13 0.005 0 0 0 2.48901
0.135 0.005 0 0 0 2.38085
0.14 0.005 0 0 0 2.28914
0.145 0.005 0 0 0 2.21184
0.15 0.005 0 0 0 2.14721
0.155 0.005 0 0 0 2.09377
0.16 0.005 0 0 0 2.05024
0.165 0.005 0 0 0 2.01552
0.17 0.005 0 0 0 1.98868
0.175 0.005 0 0 0 1.96889
0.18 0.005 0 0 0 1.95543
0.185 0.005 0 0 0 1.94769
0.19 0.005 0 0 0 1.94512
0.195 0.005 0 0 0 1.94722
0.2 0.005 0 0 0 1.95359
0.205 0.005 0 0 0 1.96384
0.21 0.005 0 0 0 1.97763
0.215 0.005 0 0 0 1.99467
0.22 0.005 0 0 0 2.01467
0.225 0.005 0 0 0 2.03739
0.23 0.005 0 0 0 2.0626
0.235 0.005 0 0 0 2.0901
0.24 0.005 0 0 0 2.11968
0.245 0.005 0 0 0 2.15118
0.25 0.005 0 0 0 2.18443
0.255 0.005 0 0 0 2.21925
0.26 0.005 0 0 0 2.25551
0.265 0.005 0 0 0 2.29306
0.27 0.005 0 0 0 2.33175
0.275 0.005 0 0 0 2.37146
0.28 0.005 0 0 0 2.41206
0.285 0.005 0 0 0 2.45341
0.29 0.005 0 0 0 2.49539
0.295 0.005 0 0 0 2.53788
0.3 0.005 0 0 0 2.58076
0.305 0.005 0 0 0 2.6239
0.31 0.005 0 0 0 2.6672
0.315 0.005 0 0 0 2.71053
0.32 0.005 0 0 0 2.75377
0.325 0.005 0 0 0 2.79682
0.33 0.005 0 0 0 2.83955
0.335 0.005 0 0 0 2.88185
0.34 0.005 0 0 0 2.92361
0.345 0.005 0 0 0 2.96473
0.35 0.005 0 0 0 3.00508
0.355 0.005 0 0 0 3.04455
0.36 0.005 0 0 0 3.08305
0.365 0.005 0 0 0 3.12047
0.37 0.005 0 0 0 3.1567
0.375 0.005 0 0 0 3.19163
0.38 0.005 0 0 0 3.22518
0.385 0.005 0 0 0 3.25725
0.39 0.005 0 0 0 3.28773
0.395 0.005 0 0 0 3.31654
0.4 0.005 0 0 0 3.34359
0.405 0.005 0 0 0 3.36881
0.41 0.005 0 0 0 3.3921
0.415 0.005 0 0 0 3.41339
0.42 0.005 0 0 0 3.43261
0.425 0.005 0 0 0 3.4497
0.43 0.005 0 0 0 3.46458
0.435 0.005 0 0 0 3.47722
0.44 0.005 0 0 0 3.48754
0.445 0.005 0 0 0 3.49551
0.45 0.005 0 0 0 3.50109
0.455 0.005 0 0 0 3.50424
0.46 0.005 0 0 0 3.50492
0.465 0.005 0 0 0 3.50313
0.47 0.005 0 0 0 3.49884
0.475 0.005 0 0 0 3.49203
0.48 0.005 0 0 0 3.48272
0.485 0.005 0 0 0 3.47089
0.49 0.005 0 0 0 3.45655
0.495 0.005 0 0 0 3.43972
0.5 0.005 0 0 0 3.42043
0.505 0.005 0 0 0 3.39869
0.51 0.005 0 0 0 3.37453
0.515 0.005 0 0 0 3.34801
0.52 0.005 0 0 0 3.31915
0.525 0.005 0 0 0 3.28802
0.53 0.005 0 0 0 3.25466
0.535 0.005 0 0 0 3.21914
0.54 0.005 0 0 0 3.18152
0.545 0.005 0 0 0 3.14187
0.55 0.005 0 0 0 3.10027
0.555 0.005 0 0 0 3.0568
0.56 0.005 0 0 0 3.01154
0.565 0.005 0 0 0 2.96457
0.57 0.005 0 0 0 2.91599
0.575 0.005 0 0 0 2.86588
0.58 0.005 0 0 0 2.81435
0.585 0.005 0 0 0 2.76148
0.59 0.005 0 0 0 2.70739
0.595 0.005 0 0 0 2.65216
0.6 0.005 0 0 0 2.59591
0.605 0.005 0 0 0 2.53873
0.61 0.005 0 0 0 2.48072
0.615 0.005 0 0 0 2.422
0.62 0.005 0 0 0 2.36265
0.625 0.005 0 0 0 2.30279
0.63 0.005 0 0 0 2.24251
0.635 0.005 0 0 0 2.18192
0.64 0.005 0 0 0 2.12111
0.645 0.005 0 0 0 2.06017
0.65 0.005 0 0 0 1.99921
0.655 0.005 0 0 0 1.93831
0.66 0.005 0 0 0 1.87757
0.665 0.005 0 0 0 1.81706
0.67 0.005 0 0 0 1.75687
0.675 0.005 0 0 0 1.69708
0.68 0.005 0 0 0 1.63777
0.685 0.005 0 0 0 1.57901
0.69 0.005 0 0 0 1.52088
0.695 0.005 0 0 0 1.46342
0.7 0.005 0 0 0 1.40672
0.705 0.005 0 0 0 1.35082
0.71 0.005 0 0 0 1.29578
0.715 0.005 0 0 0 1.24166
0.72 0.005 0 0 0 1.18849
0.725 0.005 0 0 0 1.13632
0.73 0.005 0 0 0 1.08519
0.735 0.005 0 0 0 1.03514
0.74 0.005 0 0 0 0.986196
0.745 0.005 0 0 0 0.938389
0.75 0.005 0 0 0 0.891743
0.755 0.005 0 0 0 0.846282
0.76 0.005 0 0 0 0.802022
0.765 0.005 0 0 0 0.75898
0.77 0.005 0 0 0 0.717169
0.775 0.005 0 0 0 0.676598
0.78 0.005 0 0 0 0.637274
0.785 0.005 0 0 0 0.599203
0.79 0.005 0 0 0 0.562387
0.795 0.005 0 0 0 0.526826
0.8 0.005 0 0 0 0.492518
0.805 0.005 0 0 0 0.45946
0.81 0.005 0 0 0 0.427647
0.815 0.005 0 0 0 0.39707
0.82 0.005 0 0 0 0.367723
0.825 0.005 0 0 0 0.339595
0.83 0.005 0 0 0 0.312675
0.835 0.005 0 0 0 0.286952
0.84 0.005 0 0 0 0.262412
0.845 0.005 0 0 0 0.239043
0.85 0.005 0 0 0 0.21683
0.855 0.005 0 0 0 0.195759
0.86 0.005 0 0 0 0.175813
0.865 0.005 0 0 0 0.156978
0.87 0.005 0 0 0 0.139239
0.875 0.005 0 0 0 0.122578
0.88 0.005 0 0 0 0.106981
0.885 0.005 0 0 0 0.092431
0.89 0.005 0 0 0 0.0789123
0.895 0.005 0 0 0 0.0664093
0.9 0.005 0 0 0 0.0549061
0.905 0.005 0 0 0 0.0443874
0.91 0.005 0 0 0 0.0348376
0.915 0.005 0 0 0 0.0262413
0.92 0.005 0 0 0 0.0185832
0.925 0.005 0 0 0 0.0118478
0.93 0.005 0 0 0 0.00601889
0.935 0.005 0 0 0 0.00107987
0.94 0.005 0 0 0 -0.00298727
0.945 0.005 0 0 0 -0.00620245
0.95 0.005 0 0 0 -0.00858848
0.955 0.005 0 0 0 -0.0101725
0.96 0.005 0 0 0 -0.010988
0.965 0.005 0 0 0 -0.0110776
0.97 0.005 0 0 0 -0.0104979
0.975 0.005 0 0 0 -0.00932506
0.98 0.005 0 0 0 -0.00766553
0.985 0.005 0 0 0 -0.00567033
0.99 0.005 0 0 0 -0.00355694
0.995 0.005 0 0 0 -0.00163579
1 0.005 0 0 0 -0.000319288
0 0.01 0 0 -0.000319288 0
0.005 0.01 0 0 0 -326.274
0.01 0.01 -0.179986 0.0775189 -0.000921575 -44.4499
0.015 0.01 -0.184617 -0.0351602 -0.000775189 9.47846
0.02 0.01 -0.155936 -0.03528 -0.000569973 19.0817
0.025 0.01 -0.127016 -0.0246179 -0.000422389 18.975
0.03 0.01 -0.103706 -0.0165743 -0.000323793 16.8367
0.035 0.01 -0.0857458 -0.0114771 -0.000256646 14.5475
0.04 0.01 -0.0719014 -0.00827969 -0.000209022 12.5369
0.045 0.01 -0.0610785 -0.00620435 -0.000173849 10.8555
0.05 0.01 -0.0524755 -0.00479516 -0.000146978 9.46356
0.055 0.01 -0.0455306 -0.00379587 -0.000125898 8.30855
0.06 0.01 -0.0398499 -0.00306038 -0.000109019 7.34447
0.065 0.01 -0.0351524 -0.00250236 -9.52937e-05 6.53457
0.07 0.01 -0.0312335 -0.00206859 -8.39958e-05 5.85014
0.075 0.01 -0.0279407 -0.00172481 -7.46077e-05 5.26878
0.08 0.01 -0.0251577 -0.00144806 -6.67475e-05 4.77287
0.085 0.01 -0.0227946 -0.00122242 -6.01269e-05 4.34836
0.09 0.01 -0.0207803 -0.0010365 -5.45232e-05 3.98396
0.095 0.01 -0.0190582 -0.000881919 -4.97617e-05 3.67046
0.1 0.01 -0.0175825 -0.000752401 -4.57038e-05 3.40035
0.105 0.01 -0.0163159 -0.000643137 -4.22375e-05 3.16737
0.11 0.01 -0.0152277 -0.00055039 -3.92722e-05 2.96635
0.115 0.01 -0.0142925 -0.000471222 -3.67334e-05 2.79294
0.12 0.01 -0.0134893 -0.000403291 -3.45598e-05 2.64348
0.125 0.01 -0.0128001 -0.000344717 -3.27004e-05 2.51488
0.13 0.01 -0.0122102 -0.000293976 -3.11125e-05 2.40452
0.135 0.01 -0.0117069 -0.000249826 -2.97604e-05 2.31015
0.14 0.01 -0.0112795 -0.000211246 -2.8614e-05 2.22987
0.145 0.01 -0.0109188 -0.000177395 -2.76478e-05 2.16202
0.15 0.01 -0.010617 -0.000147573 -2.68399e-05 2.10519
0.155 0.01 -0.0103674 -0.0001212 -2.61719e-05 2.05816
0.16 0.01 -0.0101642 -9.7788e-05 -2.56278e-05 2.01987
0.165 0.01 -0.0100024 -7.69289e-05 -2.51939e-05 1.98939
0.17 0.01 -0.00987767 -5.82784e-05 -2.48584e-05 1.96592
0.175 0.01 -0.00978617 -4.15457e-05 -2.4611e-05 1.94875
0.18 0.01 -0.0097246 -2.64848e-05 -2.44428e-05 1.93727
0.185 0.01 -0.00969008 -1.28865e-05 -2.4346e-05 1.93093
0.19 0.01 -0.00968002 -5.73216e-07 -2.43138e-05 1.92924
0.195 0.01 -0.00969218 1.06064e-05 -2.43402e-05 1.93178
0.2 0.01 -0.00972455 2.07813e-05 -2.44198e-05 1.93817
0.205 0.01 -0.00977533 3.00617e-05 -2.45479e-05 1.94807
0.21 0.01 -0.00984292 3.85414e-05 -2.47203e-05 1.96116
0.215 0.01 -0.00992586 4.63006e-05 -2.49333e-05 1.97717
0.22 0.01 -0.0100229 5.34079e-05 -2.51833e-05 1.99584
0.225 0.01 -0.0101327 5.99215e-05 -2.54673e-05 2.01695
0.23 0.01 -0.0102543 6.58913e-05 -2.57825e-05 2.04028
0.235 0.01 -0.0103867 7.13595e-05 -2.61262e-05 2.06563
0.24 0.01 -0.0105289 7.6362e-05 -2.6496e-05 2.09283
0.245 0.01 -0.01068 8.09292e-05 -2.68898e-05 2.12171
0.25 0.01 -0.0108393 8.50869e-05 -2.73053e-05 2.15209
0.255 0.01 -0.0110059 8.88567e-05 -2.77406e-05 2.18384
0.26 0.01 -0.0111792 9.22567e-05 -2.81939e-05 2.21681
0.265 0.01 -0.0113583 9.53022e-05 -2.86632e-05 2.25085
0.27 0.01 -0.0115427 9.80058e-05 -2.91469e-05 2.28584
0.275 0.01 -0.0117317 0.000100378 -2.96433e-05 2.32164
0.28 0.01 -0.0119246 0.000102427 -3.01508e-05 2.35814
0.285 0.01 -0.0121208 0.000104161 -3.06676e-05 2.39522
0.29 0.01 -0.0123197 0.000105586 -3.11924e-05 2.43274
0.295 0.01 -0.0125207 0.000106705 -3.17236e-05 2.47061
0.3 0.01 -0.0127233 0.000107523 -3.22596e-05 2.5087
0.305 0.01 -0.0129268 0.000108044 -3.27989e-05 2.5469
0.31 0.01 -0.0131307 0.000108271 -3.33401e-05 2.5851
0.315 0.01 -0.0133344 0.000108205 -3.38817e-05 2.6232
0.32 0.01 -0.0135374 0.00010785 -3.44223e-05 2.66109
0.325 0.01 -0.0137391 0.000107207 -3.49604e-05 2.69866
0.33 0.01 -0.013939 0.000106279 -3.54945e-05 2.73581
0.335 0.01 -0.0141364 0.000105068 -3.60233e-05 2.77244
0.34 0.01 -0.014331 0.000103577 -3.65454e-05 2.80844
0.345 0.01 -0.0145221 0.000101809 -3.70593e-05 2.84372
0.35 0.01 -0.0147092 9.97664e-05 -3.75636e-05 2.87818
0.355 0.01 -0.0148919 9.74534e-05 -3.80571e-05 2.91172
0.36 0.01 -0.0150696 9.48739e-05 -3.85384e-05 2.94425
0.365 0.01 -0.0152419 9.20323e-05 -3.90061e-05 2.97568
0.37 0.01 -0.0154082 8.89338e-05 -3.94589e-05 3.00592
0.375 0.01 -0.015568 8.55839e-05 -3.98957e-05 3.03488
0.38 0.01 -0.015721 8.19889e-05 -4.0315e-05 3.06248
0.385 0.01 -0.0158667 7.81555e-05 -4.07158e-05 3.08863
0.39 0.01 -0.0160046 7.40912e-05 -4.10969e-05 3.11327
0.395 0.01 -0.0161343 6.98042e-05 -4.1457e-05 3.13631
0.4 0.01 -0.0162555 6.53029e-05 -4.17952e-05 3.15768
0.405 0.01 -0.0163677 6.0597e-05 -4.21104e-05 3.17732
0.41 0.01 -0.0164707 5.56962e-05 -4.24015e-05 3.19516
0.415 0.01 -0.0165639 5.06111e-05 -4.26677e-05 3.21114
0.42 0.01 -0.0166472 4.5353e-05 -4.2908e-05 3.2252
0.425 0.01 -0.0167203 3.99337e-05 -4.31216e-05 3.2373
0.43 0.01 -0.0167828 3.43653e-05 -4.33077e-05 3.24739
0.435 0.01 -0.0168345 2.86609e-05 -4.34656e-05 3.25542
0.44 0.01 -0.0168752 2.28336e-05 -4.35946e-05 3.26136
0.445 0.01 -0.0169048 1.68973e-05 -4.36943e-05 3.26518
0.45 0.01 -0.0169229 1.08662e-05 -4.3764e-05 3.26684
0.455 0.01 -0.0169295 4.7548e-06 -4.38034e-05 3.26632
0.46 0.01 -0.0169245 -1.42199e-06 -4.3812e-05 3.26362
0.465 0.01 -0.0169078 -7.64901e-06 -4.37895e-05 3.2587
0.47 0.01 -0.0168792 -1.39109e-05 -4.37359e-05 3.25158
0.475 0.01 -0.0168389 -2.01922e-05 -4.36509e-05 3.24224
0.48 0.01 -0.0167867 -2.64772e-05 -4.35344e-05 3.23069
0.485 0.01 -0.0167228 -3.27502e-05 -4.33865e-05 3.21694
0.49 0.01 -0.0166471 -3.89957e-05 -4.32073e-05 3.201
0.495 0.01 -0.0165597 -4.5198e-05 -4.2997e-05 3.1829
0.5 0.01 -0.0164608 -5.13418e-05 -4.27558e-05 3.16265
0.505 0.01 -0.0163505 -5.74117e-05 -4.2484e-05 3.14028
0.51 0.01 -0.0162289 -6.33928e-05 -4.21821e-05 3.11584
0.515 0.01 -0.0160964 -6.92705e-05 -4.18505e-05 3.08935
0.52 0.01 -0.0159529 -7.50305e-05 -4.14898e-05 3.06086
0.525 0.01 -0.0157989 -8.0659e-05 -4.11007e-05 3.03043
0.53 0.01 -0.0156346 -8.61426e-05 -4.06837e-05 2.99809
0.535 0.01 -0.0154603 -9.14686e-05 -4.02397e-05 2.96392
0.54 0.01 -0.0152763 -9.66248e-05 -3.97694e-05 2.92796
0.545 0.01 -0.0150829 -0.0001016 -3.92739e-05 2.89029
0.55 0.01 -0.0148805 -0.000106383 -3.87539e-05 2.85097
0.555 0.01 -0.0146695 -0.000110963 -3.82104e-05 2.81007
0.56 0.01 -0.0144502 -0.000115332 -3.76446e-05 2.76766
0.565 0.01 -0.0142231 -0.000119481 -3.70575e-05 2.72383
0.57 0.01 -0.0139885 -0.000123403 -3.64502e-05 2.67865
0.575 0.01 -0.013747 -0.00012709 -3.58239e-05 2.63219
0.58 0.01 -0.013499 -0.000130536 -3.51797e-05 2.58455
0.585 0.01 -0.0132448 -0.000133737 -3.45189e-05 2.53581
0.59 0.01 -0.0129851 -0.000136689 -3.38427e-05 2.48605
0.595 0.01 -0.0127201 -0.000139388 -3.31524e-05 2.43536
0.6 0.01 -0.0124505 -0.000141832 -3.24492e-05 2.38382
0.605 0.01 -0.0121767 -0.000144019 -3.17345e-05 2.33153
0.61 0.01 -0.0118992 -0.000145949 -3.10094e-05 2.27858
0.615 0.01 -0.0116184 -0.000147623 -3.02753e-05 2.22504
0.62 0.01 -0.0113348 -0.000149041 -2.95335e-05 2.17101
0.625 0.01 -0.011049 -0.000150206 -2.87852e-05 2.11657
0.63 0.01 -0.0107612 -0.00015112 -2.80317e-05 2.06181
0.635 0.01 -0.0104721 -0.000151788 -2.72743e-05 2.00681
0.64 0.01 -0.0101821 -0.000152213 -2.65142e-05 1.95166
0.645 0.01 -0.00989158 -0.0001524 -2.57525e-05 1.89643
0.65 0.01 -0.00960101 -0.000152355 -2.49904e-05 1.84121
0.655 0.01 -0.00931081 -0.000152085 -2.42292e-05 1.78608
0.66 0.01 -0.00902139 -0.000151596 -2.34698e-05 1.7311
0.665 0.01 -0.00873315 -0.000150896 -2.27134e-05 1.67635
0.67 0.01 -0.00844647 -0.000149992 -2.19611e-05 1.62191
0.675 0.01 -0.00816171 -0.000148893 -2.12137e-05 1.56783
0.68 0.01 -0.00787924 -0.000147606 -2.04724e-05 1.51419
0.685 0.01 -0.00759939 -0.000146142 -1.97379e-05 1.46104
0.69 0.01 -0.00732249 -0.000144508 -1.90111e-05 1.40845
0.695 0.01 -0.00704882 -0.000142715 -1.8293e-05 1.35647
0.7 0.01 -0.00677869 -0.000140772 -1.75841e-05 1.30515
0.705 0.01 -0.00651237 -0.000138687 -1.68854e-05 1.25455
0.71 0.01 -0.00625009 -0.000136472 -1.61974e-05 1.2047
0.715 0.01 -0.00599211 -0.000134134 -1.55208e-05 1.15566
0.72 0.01 -0.00573864 -0.000131685 -1.48562e-05 1.10746
0.725 0.01 -0.00548987 -0.000129132 -1.42041e-05 1.06015
0.73 0.01 -0.005246 -0.000126486 -1.3565e-05 1.01374
0.735 0.01 -0.00500718 -0.000123755 -1.29393e-05 0.968284
0.74 0.01 -0.00477358 -0.000120948 -1.23275e-05 0.923799
0.745 0.01 -0.00454531 -0.000118075 -1.17299e-05 0.880314
0.75 0.01 -0.00432251 -0.000115142 -1.11469e-05 0.83785
0.755 0.01 -0.00410527 -0.000112159 -1.05786e-05 0.796426
0.76 0.01 -0.00389369 -0.000109134 -1.00253e-05 0.756061
0.765 0.01 -0.00368784 -0.000106073 -9.48731e-06 0.716768
0.77 0.01 -0.00348778 -0.000102984 -8.96466e-06 0.67856
0.775 0.01 -0.00329355 -9.98731e-05 -8.45752e-06 0.641445
0.78 0.01 -0.00310521 -9.67475e-05 -7.96597e-06 0.605433
0.785 0.01 -0.00292276 -9.36129e-05 -7.49007e-06 0.570527
0.79 0.01 -0.00274623 -9.04749e-05 -7.02987e-06 0.536731
0.795 0.01 -0.00257562 -8.73388e-05 -6.58535e-06 0.504047
0.8 0.01 -0.00241092 -8.42096e-05 -6.1565e-06 0.472475
0.805 0.01 -0.00225213 -8.10916e-05 -5.74327e-06 0.442013
0.81 0.01 -0.00209921 -7.79891e-05 -5.34559e-06 0.412657
0.815 0.01 -0.00195215 -7.49059e-05 -4.96338e-06 0.384403
0.82 0.01 -0.0018109 -7.18452e-05 -4.59654e-06 0.357245
0.825 0.01 -0.00167542 -6.88103e-05 -4.24493e-06 0.331176
0.83 0.01 -0.00154566 -6.58038e-05 -3.90844e-06 0.306188
0.835 0.01 -0.00142158 -6.28281e-05 -3.58689e-06 0.282271
0.84 0.01 -0.00130311 -5.98853e-05 -3.28015e-06 0.259416
0.845 0.01 -0.00119019 -5.69771e-05 -2.98803e-06 0.237613
0.85 0.01 -0.00108277 -5.41052e-05 -2.71037e-06 0.21685
0.855 0.01 -0.000980776 -5.12705e-05 -2.44697e-06 0.197115
0.86 0.01 -0.000884136 -4.84742e-05 -2.19765e-06 0.178397
0.865 0.01 -0.000792782 -4.57169e-05 -1.96222e-06 0.160683
0.87 0.01 -0.000706644 -4.29991e-05 -1.74047e-06 0.143959
0.875 0.01 -0.000625648 -4.0321e-05 -1.53222e-06 0.128213
0.88 0.01 -0.000549722 -3.76828e-05 -1.33725e-06 0.113432
0.885 0.01 -0.000478791 -3.50845e-05 -1.15537e-06 0.0996019
0.89 0.01 -0.000412782 -3.25258e-05 -9.86391e-07 0.0867092
0.895 0.01 -0.000351622 -3.00064e-05 -8.30103e-07 0.0747402
0.9 0.01 -0.000295236 -2.7526e-05 -6.86314e-07 0.063681
0.905 0.01 -0.00024355 -2.50844e-05 -5.5483e-07 0.0535177
0.91 0.01 -0.000196491 -2.26813e-05 -4.35457e-07 0.0442361
0.915 0.01 -0.000153983 -2.03167e-05 -3.28005e-07 0.0358215
0.92 0.01 -0.000115951 -1.79908e-05 -2.3228e-07 0.0282588
0.925 0.01 -8.23161e-05 -1.57043e-05 -1.48087e-07 0.0215325
0.93 0.01 -5.29979e-05 -1.34588e-05 -7.52267e-08 0.0156256
0.935 0.01 -2.79094e-05 -1.12568e-05 -1.34898e-08 0.0105202
0.94 0.01 -6.95641e-06 -9.10204e-06 3.73486e-08 0.00619618
0.945 0.01 9.96648e-06 -7.00074e-06 7.75374e-08 0.00263073
0.95 0.01 2.29807e-05 -4.96188e-06 1.07362e-07 -0.000202551
0.955 0.01 3.22304e-05 -2.99878e-06 1.27161e-07 -0.00233518
0.96 0.01 3.78914e-05 -1.13095e-06 1.37354e-07 -0.00380555
0.965 0.01 4.01847e-05 6.13025e-07 1.38474e-07 -0.00466139
0.97 0.01 3.93936e-05 2.19105e-06 1.31226e-07 -0.00496299
0.975 0.01 3.58898e-05 3.54066e-06 1.16565e-07 -0.00478746
0.98 0.01 3.01675e-05 4.56857e-06 9.58201e-08 -0.00423363
0.985 0.01 2.28906e-05 5.13583e-06 7.08797e-08 -0.00342683
0.99 0.01 1.49501e-05 5.04323e-06 4.44619e-08 -0.00251928
0.995 0.01 7.5182e-06 4.04708e-06 2.04473e-08 -0.00167385
1 0.01 2.04061e-06 2.04473e-06 3.99102e-09 -0.00099558
0 0.015 0 0 -0.00163249 0
0.005 0.015 0 0 0 -256.011
0.01 0.015 -0.152714 0.184617 -0.00179986 -79.3195
0.015 0.015 -0.205862 -0.0240507 -0.00184617 -16.6586
0.02 0.015 -0.204026 -0.0576006 -0.00155936 2.36464
0.025 0.015 -0.18402 -0.05223 -0.00127016 8.0291
0.03 0.015 -0.160768 -0.0412707 -0.00103706 9.38669
0.035 0.015 -0.139248 -0.0318041 -0.000857458 9.28026
0.04 0.015 -0.120693 -0.0246673 -0.000719014 8.68643
0.045 0.015 -0.105073 -0.0194259 -0.000610785 7.96235
0.05 0.015 -0.0920016 -0.0155479 -0.000524755 7.24174
0.055 0.015 -0.0810497 -0.0126257 -0.000455306 6.57286
0.06 0.015 -0.0718379 -0.0103782 -0.000398498 5.97017
0.065 0.015 -0.064054 -0.0086163 -0.000351523 5.43468
0.07 0.015 -0.0574472 -0.00721164 -0.000312335 4.96218
0.075 0.015 -0.0518167 -0.00607573 -0.000279406 4.54674
0.08 0.015 -0.0470015 -0.00514604 -0.000251577 4.18217
0.085 0.015 -0.0428713 -0.0043774 -0.000227945 3.8626
0.09 0.015 -0.0393203 -0.00373637 -0.000207802 3.58269
0.095 0.015 -0.0362616 -0.00319778 -0.000190581 3.33767
0.1 0.015 -0.0336233 -0.00274225 -0.000175824 3.12337
0.105 0.015 -0.0313459 -0.00235472 -0.000163158 2.93612
0.11 0.015 -0.0293795 -0.00202325 -0.000152276 2.77272
0.115 0.015 -0.0276823 -0.00173835 -0.000142925 2.63037
0.12 0.015 -0.0262189 -0.00149234 -0.000134892 2.50665
0.125 0.015 -0.0249594 -0.00127897 -0.000128001 2.39943
0.13 0.015 -0.0238783 -0.00109316 -0.000122102 2.30686
0.135 0.015 -0.022954 -0.000930681 -0.000117068 2.22732
0.14 0.015 -0.0221677 -0.000788066 -0.000112794 2.1594
0.145 0.015 -0.0215036 -0.000662416 -0.000109187 2.10185
0.15 0.015 -0.0209477 -0.000551309 -0.000106169 2.0536
0.155 0.015 -0.0204881 -0.000452716 -0.000103674 2.01368
0.16 0.015 -0.0201145 -0.000364927 -0.000101642 1.98126
0.165 0.015 -0.0198179 -0.000286499 -0.000100024 1.95558
0.17 0.015 -0.0195903 -0.000216209 -9.87762e-05 1.936
0.175 0.015 -0.0194249 -0.00015302 -9.78612e-05 1.92193
0.18 0.015 -0.0193156 -9.60472e-05 -9.72456e-05 1.91285
0.185 0.015 -0.0192571 -4.45389e-05 -9.69004e-05 1.9083
0.19 0.015 -0.0192446 2.14837e-06 -9.67999e-05 1.90786
0.195 0.015 -0.019274 4.45643e-05 -9.69215e-05 1.91117
0.2 0.015 -0.0193414 8.31796e-05 -9.72452e-05 1.91789
0.205 0.015 -0.0194435 0.000118397 -9.7753e-05 1.92771
0.21 0.015 -0.0195772 0.000150562 -9.84289e-05 1.94036
0.215 0.015 -0.01974 0.00017997 -9.92584e-05 1.9556
0.22 0.015 -0.0199291 0.000206875 -0.000100228 1.97318
0.225 0.015 -0.0201424 0.000231493 -0.000101327 1.99291
0.23 0.015 -0.0203778 0.000254009 -0.000102543 2.01458
0.235 0.015 -0.0206333 0.000274583 -0.000103867 2.03801
0.24 0.015 -0.0209072 0.000293348 -0.000105289 2.06303
0.245 0.015 -0.0211977 0.000310421 -0.0001068 2.08948
0.25 0.015 -0.0215032 0.000325898 -0.000108393 2.11721
0.255 0.015 -0.0218223 0.000339862 -0.000110059 2.14608
0.26 0.015 -0.0221536 0.000352384 -0.000111792 2.17595
0.265 0.015 -0.0224955 0.000363522 -0.000113583 2.20669
0.27 0.015 -0.0228469 0.000373325 -0.000115427 2.23817
0.275 0.015 -0.0232065 0.000381837 -0.000117317 2.27028
0.28 0.015 -0.0235729 0.000389091 -0.000119246 2.30289
0.285 0.015 -0.0239451 0.000395117 -0.000121208 2.33589
0.29 0.015 -0.0243218 0.00039994 -0.000123197 2.36917
0.295 0.015 -0.0247019 0.00040358 -0.000125208 2.40263
0.3 0.015 -0.0250842 0.000406057 -0.000127233 2.43615
0.305 0.015 -0.0254677 0.000407385 -0.000129269 2.46964
0.31 0.015 -0.0258512 0.000407579 -0.000131308 2.50299
0.315 0.015 -0.0262337 0.000406651 -0.000133345 2.5361
0.32 0.015 -0.026614 0.000404613 -0.000135375 2.56888
0.325 0.015 -0.0269912 0.000401478 -0.000137392 2.60123
0.33 0.015 -0.0273642 0.000397256 -0.00013939 2.63305
0.335 0.015 -0.0277319 0.00039196 -0.000141365 2.66426
0.34 0.015 -0.0280934 0.000385603 -0.00014331 2.69477
0.345 0.015 -0.0284477 0.0003782 -0.000145222 2.72449
0.35 0.015 -0.0287938 0.000369765 -0.000147093 2.75334
0.355 0.015 -0.0291307 0.000360315 -0.00014892 2.78123
0.36 0.015 -0.0294575 0.000349869 -0.000150697 2.80808
0.365 0.015 -0.0297733 0.000338447 -0.00015242 2.83381
0.37 0.015 -0.0300771 0.000326071 -0.000154083 2.85836
0.375 0.015 -0.0303682 0.000312764 -0.000155681 2.88164
0.38 0.015 -0.0306456 0.000298554 -0.000157211 2.90359
0.385 0.015 -0.0309086 0.000283469 -0.000158668 2.92415
0.39 0.015 -0.0311564 0.000267539 -0.000160047 2.94324
0.395 0.015 -0.0313882 0.000250798 -0.000161345 2.96082
0.4 0.015 -0.0316033 0.00023328 -0.000162556 2.97682
0.405 0.015 -0.031801 0.000215023 -0.000163679 2.99119
0.41 0.015 -0.0319807 0.000196065 -0.000164708 3.00389
0.415 0.015 -0.0321418 0.00017645 -0.000165641 3.01486
0.42 0.015 -0.0322837 0.00015622 -0.000166474 3.02407
0.425 0.015 -0.0324059 0.000135421 -0.000167204 3.03149
0.43 0.015 -0.0325079 0.000114101 -0.000167829 3.03707
0.435 0.015 -0.0325893 9.23077e-05 -0.000168347 3.04079
0.44 0.015 -0.0326497 7.00934e-05 -0.000168754 3.04263
0.445 0.015 -0.0326888 4.75099e-05 -0.000169049 3.04256
0.45 0.015 -0.0327063 2.46107e-05 -0.000169231 3.04057
0.455 0.015 -0.032702 1.45064e-06 -0.000169297 3.03665
0.46 0.015 -0.0326757 -2.19146e-05 -0.000169247 3.03079
0.465 0.015 -0.0326273 -4.54286e-05 -0.000169079 3.023
0.47 0.015 -0.0325567 -6.90343e-05 -0.000168794 3.01326
0.475 0.015 -0.0324638 -9.26742e-05 -0.00016839 3.0016
0.48 0.015 -0.0323488 -0.000116291 -0.000167869 2.98801
0.485 0.015 -0.0322117 -0.000139826 -0.000167229 2.97252
0.49 0.015 -0.0320526 -0.000163223 -0.000166472 2.95515
0.495 0.015 -0.0318717 -0.000186426 -0.000165599 2.93591
0.5 0.015 -0.0316694 -0.000209376 -0.00016461 2.91483
0.505 0.015 -0.0314457 -0.00023202 -0.000163507 2.89196
0.51 0.015 -0.0312012 -0.000254303 -0.000162291 2.86731
0.515 0.015 -0.0309362 -0.000276173 -0.000160965 2.84094
0.52 0.015 -0.0306511 -0.000297577 -0.000159531 2.81288
0.525 0.015 -0.0303464 -0.000318466 -0.000157991 2.78318
0.53 0.015 -0.0300227 -0.000338794 -0.000156348 2.75189
0.535 0.015 -0.0296805 -0.000358513 -0.000154605 2.71906
0.54 0.015 -0.0293204 -0.000377581 -0.000152765 2.68474
0.545 0.015 -0.028943 -0.000395957 -0.000150831 2.64901
0.55 0.015 -0.0285491 -0.000413602 -0.000148807 2.6119
0.555 0.015 -0.0281392 -0.000430482 -0.000146696 2.5735
0.56 0.015 -0.0277143 -0.000446563 -0.000144503 2.53385
0.565 0.015 -0.027275 -0.000461815 -0.000142232 2.49304
0.57 0.015 -0.0268222 -0.000476213 -0.000139887 2.45112
0.575 0.015 -0.0263566 -0.000489731 -0.000137472 2.40817
0.58 0.015 -0.0258791 -0.000502351 -0.000134991 2.36426
0.585 0.015 -0.0253905 -0.000514055 -0.00013245 2.31945
0.59 0.015 -0.0248917 -0.000524829 -0.000129852 2.27383
0.595 0.015 -0.0243835 -0.000534662 -0.000127203 2.22747
0.6 0.015 -0.0238669 -0.000543548 -0.000124507 2.18043
0.605 0.015 -0.0233427 -0.000551481 -0.000121769 2.1328
0.61 0.015 -0.0228117 -0.000558462 -0.000118993 2.08465
0.615 0.015 -0.022275 -0.000564492 -0.000116185 2.03604
0.62 0.015 -0.0217332 -0.000569576 -0.00011335 1.98706
0.625 0.015 -0.0211875 -0.000573723 -0.000110491 1.93777
0.63 0.015 -0.0206384 -0.000576944 -0.000107614 1.88825
0.635 0.015 -0.020087 -0.000579252 -0.000104722 1.83856
0.64 0.015 -0.0195341 -0.000580665 -0.000101822 1.78878
0.645 0.015 -0.0189804 -0.0005812 -9.89169e-05 1.73897
0.65 0.015 -0.0184268 -0.000580878 -9.60112e-05 1.6892
0.655 0.015 -0.0178741 -0.000579724 -9.31091e-05 1.63953
0.66 0.015 -0.017323 -0.000577763 -9.02149e-05 1.59003
0.665 0.015 -0.0167742 -0.00057502 -8.73324e-05 1.54075
0.67 0.015 -0.0162284 -0.000571526 -8.44655e-05 1.49176
0.675 0.015 -0.0156864 -0.000567309 -8.1618e-05 1.4431
0.68 0.015 -0.0151487 -0.000562402 -7.87932e-05 1.39484
0.685 0.015 -0.014616 -0.000556837 -7.59947e-05 1.34702
0.69 0.015 -0.0140889 -0.000550646 -7.32256e-05 1.29969
0.695 0.015 -0.013568 -0.000543864 -7.04889e-05 1.25291
0.7 0.015 -0.0130537 -0.000536525 -6.77876e-05 1.20671
0.705 0.015 -0.0125466 -0.000528663 -6.51243e-05 1.16114
0.71 0.015 -0.0120471 -0.000520314 -6.25015e-05 1.11623
0.715 0.015 -0.0115557 -0.000511512 -5.99216e-05 1.07202
0.72 0.015 -0.0110728 -0.000502292 -5.73869e-05 1.02856
0.725 0.015 -0.0105988 -0.000492689 -5.48992e-05 0.985856
0.73 0.015 -0.0101339 -0.000482735 -5.24604e-05 0.943954
0.735 0.015 -0.00967857 -0.000472464 -5.00722e-05 0.902876
0.74 0.015 -0.00923301 -0.000461909 -4.77361e-05 0.862647
0.745 0.015 -0.00879748 -0.000451101 -4.54535e-05 0.823288
0.75 0.015 -0.0083722 -0.000440071 -4.32254e-05 0.784819
0.755 0.015 -0.00795739 -0.000428849 -4.1053e-05 0.747259
0.76 0.015 -0.0075532 -0.000417463 -3.89372e-05 0.710621
0.765 0.015 -0.00715978 -0.000405941 -3.68786e-05 0.674921
0.77 0.015 -0.00677725 -0.000394308 -3.4878e-05 0.640167
0.775 0.015 -0.0064057 -0.00038259 -3.29357e-05 0.606371
0.78 0.015 -0.0060452 -0.000370811 -3.10522e-05 0.57354
0.785 0.015 -0.00569582 -0.000358992 -2.92277e-05 0.541679
0.79 0.015 -0.00535757 -0.000347154 -2.74624e-05 0.510792
0.795 0.015 -0.00503048 -0.000335318 -2.57563e-05 0.480883
0.8 0.015 -0.00471454 -0.0003235 -2.41093e-05 0.451952
0.805 0.015 -0.00440973 -0.000311718 -2.25213e-05 0.423999
0.81 0.015 -0.00411602 -0.000299987 -2.09922e-05 0.397023
0.815 0.015 -0.00383336 -0.000288322 -1.95215e-05 0.37102
0.82 0.015 -0.00356168 -0.000276735 -1.8109e-05 0.345988