Title=" Lid Driven Flow"
VARIABLES="X","Y","U","V","psi","xi"
ZONE T= "BOX", I= 201, J=201, F=POINT
0 0 0 0 0.000767914 0
0.005 0 0 0 0 0
0.01 0 0 0 0 0
0.015 0 0 0 0 161.889
0.02 0 0 0 0 176.133
0.025 0 0 0 0 155.645
0.03 0 0 0 0 133.298
0.035 0 0 0 0 115.825
0.04 0 0 0 0 103.013
0.045 0 0 0 0 93.5117
0.05 0 0 0 0 86.2075
0.055 0 0 0 0 80.3653
0.06 0 0 0 0 75.5259
0.065 0 0 0 0 71.401
0.07 0 0 0 0 67.8042
0.075 0 0 0 0 64.6104
0.08 0 0 0 0 61.7333
0.085 0 0 0 0 59.1113
0.09 0 0 0 0 56.6996
0.095 0 0 0 0 54.4647
0.1 0 0 0 0 52.3815
0.105 0 0 0 0 50.4304
0.11 0 0 0 0 48.5962
0.115 0 0 0 0 46.8665
0.12 0 0 0 0 45.2315
0.125 0 0 0 0 43.6829
0.13 0 0 0 0 42.2137
0.135 0 0 0 0 40.8179
0.14 0 0 0 0 39.4904
0.145 0 0 0 0 38.2265
0.15 0 0 0 0 37.022
0.155 0 0 0 0 35.873
0.16 0 0 0 0 34.7762
0.165 0 0 0 0 33.7283
0.17 0 0 0 0 32.7262
0.175 0 0 0 0 31.7671
0.18 0 0 0 0 30.8482
0.185 0 0 0 0 29.9671
0.19 0 0 0 0 29.1214
0.195 0 0 0 0 28.3088
0.2 0 0 0 0 27.527
0.205 0 0 0 0 26.7741
0.21 0 0 0 0 26.0481
0.215 0 0 0 0 25.3472
0.22 0 0 0 0 24.6696
0.225 0 0 0 0 24.0136
0.23 0 0 0 0 23.3778
0.235 0 0 0 0 22.7605
0.24 0 0 0 0 22.1605
0.245 0 0 0 0 21.5764
0.25 0 0 0 0 21.0071
0.255 0 0 0 0 20.4513
0.26 0 0 0 0 19.9081
0.265 0 0 0 0 19.3764
0.27 0 0 0 0 18.8553
0.275 0 0 0 0 18.344
0.28 0 0 0 0 17.8418
0.285 0 0 0 0 17.3479
0.29 0 0 0 0 16.8618
0.295 0 0 0 0 16.3828
0.3 0 0 0 0 15.9104
0.305 0 0 0 0 15.4443
0.31 0 0 0 0 14.9841
0.315 0 0 0 0 14.5294
0.32 0 0 0 0 14.0799
0.325 0 0 0 0 13.6356
0.33 0 0 0 0 13.1961
0.335 0 0 0 0 12.7615
0.34 0 0 0 0 12.3315
0.345 0 0 0 0 11.9063
0.35 0 0 0 0 11.4858
0.355 0 0 0 0 11.0702
0.36 0 0 0 0 10.6594
0.365 0 0 0 0 10.2536
0.37 0 0 0 0 9.85294
0.375 0 0 0 0 9.45766
0.38 0 0 0 0 9.06793
0.385 0 0 0 0 8.68398
0.39 0 0 0 0 8.30603
0.395 0 0 0 0 7.93435
0.4 0 0 0 0 7.56919
0.405 0 0 0 0 7.21081
0.41 0 0 0 0 6.8595
0.415 0 0 0 0 6.51551
0.42 0 0 0 0 6.1791
0.425 0 0 0 0 5.85055
0.43 0 0 0 0 5.53009
0.435 0 0 0 0 5.21795
0.44 0 0 0 0 4.91436
0.445 0 0 0 0 4.61952
0.45 0 0 0 0 4.33361
0.455 0 0 0 0 4.05679
0.46 0 0 0 0 3.7892
0.465 0 0 0 0 3.53094
0.47 0 0 0 0 3.2821
0.475 0 0 0 0 3.04275
0.48 0 0 0 0 2.81292
0.485 0 0 0 0 2.5926
0.49 0 0 0 0 2.38179
0.495 0 0 0 0 2.18043
0.5 0 0 0 0 1.98845
0.505 0 0 0 0 1.80575
0.51 0 0 0 0 1.63221
0.515 0 0 0 0 1.46768
0.52 0 0 0 0 1.312
0.525 0 0 0 0 1.16497
0.53 0 0 0 0 1.0264
0.535 0 0 0 0 0.896054
0.54 0 0 0 0 0.77371
0.545 0 0 0 0 0.659114
0.55 0 0 0 0 0.552009
0.555 0 0 0 0 0.452125
0.56 0 0 0 0 0.35919
0.565 0 0 0 0 0.272922
0.57 0 0 0 0 0.193037
0.575 0 0 0 0 0.11925
0.58 0 0 0 0 0.0512753
0.585 0 0 0 0 -0.011174
0.59 0 0 0 0 -0.068381
0.595 0 0 0 0 -0.120626
0.6 0 0 0 0 -0.168184
0.605 0 0 0 0 -0.211327
0.61 0 0 0 0 -0.250318
0.615 0 0 0 0 -0.285414
0.62 0 0 0 0 -0.316866
0.625 0 0 0 0 -0.344913
0.63 0 0 0 0 -0.369789
0.635 0 0 0 0 -0.391715
0.64 0 0 0 0 -0.410905
0.645 0 0 0 0 -0.427562
0.65 0 0 0 0 -0.441878
0.655 0 0 0 0 -0.454035
0.66 0 0 0 0 -0.464206
0.665 0 0 0 0 -0.472551
0.67 0 0 0 0 -0.479221
0.675 0 0 0 0 -0.484355
0.68 0 0 0 0 -0.488084
0.685 0 0 0 0 -0.490528
0.69 0 0 0 0 -0.491797
0.695 0 0 0 0 -0.491994
0.7 0 0 0 0 -0.49121
0.705 0 0 0 0 -0.489531
0.71 0 0 0 0 -0.487033
0.715 0 0 0 0 -0.483787
0.72 0 0 0 0 -0.479855
0.725 0 0 0 0 -0.475296
0.73 0 0 0 0 -0.470161
0.735 0 0 0 0 -0.464497
0.74 0 0 0 0 -0.458346
0.745 0 0 0 0 -0.451749
0.75 0 0 0 0 -0.44474
0.755 0 0 0 0 -0.437351
0.76 0 0 0 0 -0.429613
0.765 0 0 0 0 -0.421553
0.77 0 0 0 0 -0.413196
0.775 0 0 0 0 -0.404566
0.78 0 0 0 0 -0.395687
0.785 0 0 0 0 -0.386578
0.79 0 0 0 0 -0.377259
0.795 0 0 0 0 -0.367749
0.8 0 0 0 0 -0.358067
0.805 0 0 0 0 -0.348228
0.81 0 0 0 0 -0.338248
0.815 0 0 0 0 -0.328143
0.82 0 0 0 0 -0.317927
0.825 0 0 0 0 -0.307612
0.83 0 0 0 0 -0.297213
0.835 0 0 0 0 -0.28674
0.84 0 0 0 0 -0.276204
0.845 0 0 0 0 -0.265616
0.85 0 0 0 0 -0.254986
0.855 0 0 0 0 -0.244323
0.86 0 0 0 0 -0.233636
0.865 0 0 0 0 -0.222933
0.87 0 0 0 0 -0.212221
0.875 0 0 0 0 -0.20151
0.88 0 0 0 0 -0.190808
0.885 0 0 0 0 -0.180123
0.89 0 0 0 0 -0.169465
0.895 0 0 0 0 -0.158844
0.9 0 0 0 0 -0.148271
0.905 0 0 0 0 -0.13776
0.91 0 0 0 0 -0.127326
0.915 0 0 0 0 -0.116987
0.92 0 0 0 0 -0.106764
0.925 0 0 0 0 -0.0966807
0.93 0 0 0 0 -0.0867666
0.935 0 0 0 0 -0.0770552
0.94 0 0 0 0 -0.0675862
0.945 0 0 0 0 -0.0584058
0.95 0 0 0 0 -0.0495679
0.955 0 0 0 0 -0.041135
0.96 0 0 0 0 -0.0331795
0.965 0 0 0 0 -0.0257846
0.97 0 0 0 0 -0.0190452
0.975 0 0 0 0 -0.0130687
0.98 0 0 0 0 -0.00797386
0.985 0 0 0 0 -0.00388719
0.99 0 0 0 0 -0.000932879
0.995 0 0 0 0 0.000793174
1 0 0 0 0 0.00128493
0 0.005 0 0 0 0
0.005 0.005 0 0 0 0
0.01 0.005 0 0 0 73.7252
0.015 0.005 0 0 0 61.9877
0.02 0.005 0 0 0 45.5331
0.025 0.005 0 0 0 33.7037
0.03 0.005 0 0 0 25.8193
0.035 0.005 0 0 0 20.4759
0.04 0.005 0 0 0 16.7131
0.045 0.005 0 0 0 13.9578
0.05 0.005 0 0 0 11.8716
0.055 0.005 0 0 0 10.2487
0.06 0.005 0 0 0 8.95887
0.065 0.005 0 0 0 7.91587
0.07 0.005 0 0 0 7.06062
0.075 0.005 0 0 0 6.35122
0.08 0.005 0 0 0 5.75713
0.085 0.005 0 0 0 5.25553
0.09 0.005 0 0 0 4.82909
0.095 0.005 0 0 0 4.4644
0.1 0.005 0 0 0 4.15094
0.105 0.005 0 0 0 3.88034
0.11 0.005 0 0 0 3.64589
0.115 0.005 0 0 0 3.44214
0.12 0.005 0 0 0 3.26464
0.125 0.005 0 0 0 3.10972
0.13 0.005 0 0 0 2.97433
0.135 0.005 0 0 0 2.85591
0.14 0.005 0 0 0 2.75231
0.145 0.005 0 0 0 2.66173
0.15 0.005 0 0 0 2.5826
0.155 0.005 0 0 0 2.51361
0.16 0.005 0 0 0 2.45361
0.165 0.005 0 0 0 2.40161
0.17 0.005 0 0 0 2.35677
0.175 0.005 0 0 0 2.31833
0.18 0.005 0 0 0 2.28563
0.185 0.005 0 0 0 2.2581
0.19 0.005 0 0 0 2.23523
0.195 0.005 0 0 0 2.21657
0.2 0.005 0 0 0 2.2017
0.205 0.005 0 0 0 2.19028
0.21 0.005 0 0 0 2.18196
0.215 0.005 0 0 0 2.17647
0.22 0.005 0 0 0 2.17352
0.225 0.005 0 0 0 2.17289
0.23 0.005 0 0 0 2.17434
0.235 0.005 0 0 0 2.17768
0.24 0.005 0 0 0 2.18271
0.245 0.005 0 0 0 2.18926
0.25 0.005 0 0 0 2.19717
0.255 0.005 0 0 0 2.20629
0.26 0.005 0 0 0 2.21648
0.265 0.005 0 0 0 2.2276
0.27 0.005 0 0 0 2.23953
0.275 0.005 0 0 0 2.25216
0.28 0.005 0 0 0 2.26536
0.285 0.005 0 0 0 2.27904
0.29 0.005 0 0 0 2.29308
0.295 0.005 0 0 0 2.3074
0.3 0.005 0 0 0 2.3219
0.305 0.005 0 0 0 2.3365
0.31 0.005 0 0 0 2.35109
0.315 0.005 0 0 0 2.36561
0.32 0.005 0 0 0 2.37998
0.325 0.005 0 0 0 2.39412
0.33 0.005 0 0 0 2.40794
0.335 0.005 0 0 0 2.4214
0.34 0.005 0 0 0 2.43441
0.345 0.005 0 0 0 2.44692
0.35 0.005 0 0 0 2.45885
0.355 0.005 0 0 0 2.47016
0.36 0.005 0 0 0 2.48078
0.365 0.005 0 0 0 2.49067
0.37 0.005 0 0 0 2.49976
0.375 0.005 0 0 0 2.50801
0.38 0.005 0 0 0 2.51538
0.385 0.005 0 0 0 2.52183
0.39 0.005 0 0 0 2.5273
0.395 0.005 0 0 0 2.53177
0.4 0.005 0 0 0 2.5352
0.405 0.005 0 0 0 2.53756
0.41 0.005 0 0 0 2.53882
0.415 0.005 0 0 0 2.53895
0.42 0.005 0 0 0 2.53794
0.425 0.005 0 0 0 2.53576
0.43 0.005 0 0 0 2.53239
0.435 0.005 0 0 0 2.52783
0.44 0.005 0 0 0 2.52207
0.445 0.005 0 0 0 2.51509
0.45 0.005 0 0 0 2.50689
0.455 0.005 0 0 0 2.49746
0.46 0.005 0 0 0 2.48682
0.465 0.005 0 0 0 2.47497
0.47 0.005 0 0 0 2.46191
0.475 0.005 0 0 0 2.44765
0.48 0.005 0 0 0 2.4322
0.485 0.005 0 0 0 2.41558
0.49 0.005 0 0 0 2.39781
0.495 0.005 0 0 0 2.37891
0.5 0.005 0 0 0 2.3589
0.505 0.005 0 0 0 2.3378
0.51 0.005 0 0 0 2.31565
0.515 0.005 0 0 0 2.29246
0.52 0.005 0 0 0 2.26827
0.525 0.005 0 0 0 2.24312
0.53 0.005 0 0 0 2.21703
0.535 0.005 0 0 0 2.19004
0.54 0.005 0 0 0 2.16219
0.545 0.005 0 0 0 2.13352
0.55 0.005 0 0 0 2.10406
0.555 0.005 0 0 0 2.07385
0.56 0.005 0 0 0 2.04294
0.565 0.005 0 0 0 2.01137
0.57 0.005 0 0 0 1.97917
0.575 0.005 0 0 0 1.94639
0.58 0.005 0 0 0 1.91308
0.585 0.005 0 0 0 1.87927
0.59 0.005 0 0 0 1.845
0.595 0.005 0 0 0 1.81033
0.6 0.005 0 0 0 1.77528
0.605 0.005 0 0 0 1.7399
0.61 0.005 0 0 0 1.70424
0.615 0.005 0 0 0 1.66834
0.62 0.005 0 0 0 1.63222
0.625 0.005 0 0 0 1.59595
0.63 0.005 0 0 0 1.55954
0.635 0.005 0 0 0 1.52304
0.64 0.005 0 0 0 1.48649
0.645 0.005 0 0 0 1.44992
0.65 0.005 0 0 0 1.41336
0.655 0.005 0 0 0 1.37686
0.66 0.005 0 0 0 1.34044
0.665 0.005 0 0 0 1.30413
0.67 0.005 0 0 0 1.26797
0.675 0.005 0 0 0 1.23198
0.68 0.005 0 0 0 1.19619
0.685 0.005 0 0 0 1.16064
0.69 0.005 0 0 0 1.12533
0.695 0.005 0 0 0 1.09031
0.7 0.005 0 0 0 1.05559
0.705 0.005 0 0 0 1.02119
0.71 0.005 0 0 0 0.98714
0.715 0.005 0 0 0 0.953456
0.72 0.005 0 0 0 0.920157
0.725 0.005 0 0 0 0.887261
0.73 0.005 0 0 0 0.854786
0.735 0.005 0 0 0 0.822749
0.74 0.005 0 0 0 0.791164
0.745 0.005 0 0 0 0.760046
0.75 0.005 0 0 0 0.729409
0.755 0.005 0 0 0 0.699265
0.76 0.005 0 0 0 0.669628
0.765 0.005 0 0 0 0.640509
0.77 0.005 0 0 0 0.611918
0.775 0.005 0 0 0 0.583867
0.78 0.005 0 0 0 0.556364
0.785 0.005 0 0 0 0.529421
0.79 0.005 0 0 0 0.503044
0.795 0.005 0 0 0 0.477244
0.8 0.005 0 0 0 0.452028
0.805 0.005 0 0 0 0.427405
0.81 0.005 0 0 0 0.403381
0.815 0.005 0 0 0 0.379964
0.82 0.005 0 0 0 0.357162
0.825 0.005 0 0 0 0.334981
0.83 0.005 0 0 0 0.313429
0.835 0.005 0 0 0 0.292511
0.84 0.005 0 0 0 0.272235
0.845 0.005 0 0 0 0.252608
0.85 0.005 0 0 0 0.233635
0.855 0.005 0 0 0 0.215324
0.86 0.005 0 0 0 0.197681
0.865 0.005 0 0 0 0.180714
0.87 0.005 0 0 0 0.164428
0.875 0.005 0 0 0 0.148831
0.88 0.005 0 0 0 0.13393
0.885 0.005 0 0 0 0.119733
0.89 0.005 0 0 0 0.106247
0.895 0.005 0 0 0 0.0934804
0.9 0.005 0 0 0 0.0814406
0.905 0.005 0 0 0 0.0701363
0.91 0.005 0 0 0 0.0595763
0.915 0.005 0 0 0 0.0497694
0.92 0.005 0 0 0 0.0407249
0.925 0.005 0 0 0 0.0324521
0.93 0.005 0 0 0 0.0249606
0.935 0.005 0 0 0 0.0182597
0.94 0.005 0 0 0 0.0123582
0.945 0.005 0 0 0 0.00726428
0.95 0.005 0 0 0 0.00298438
0.955 0.005 0 0 0 -0.000477586
0.96 0.005 0 0 0 -0.00312188
0.965 0.005 0 0 0 -0.00495539
0.97 0.005 0 0 0 -0.00599543
0.975 0.005 0 0 0 -0.00627575
0.98 0.005 0 0 0 -0.00585628
0.985 0.005 0 0 0 -0.00483907
0.99 0.005 0 0 0 -0.00339426
0.995 0.005 0 0 0 -0.00179967
1 0.005 0 0 0 -0.00048506
0 0.01 0 0 -0.00048506 0
0.005 0.01 0 0 0 -326.275
0.01 0.01 -0.179958 0.0774846 -0.000921565 -44.4736
0.015 0.01 -0.184495 -0.0352402 -0.000774846 9.45184
0.02 0.01 -0.155708 -0.0353549 -0.000569164 19.0629
0.025 0.01 -0.126742 -0.0246422 -0.000421297 18.9655
0.03 0.01 -0.103474 -0.0165348 -0.000322742 16.8406
0.035 0.01 -0.0856447 -0.0113828 -0.000255949 14.5722
0.04 0.01 -0.0719993 -0.00814767 -0.000208914 12.5904
0.045 0.01 -0.0614186 -0.00605187 -0.000174472 10.9442
0.05 0.01 -0.0530784 -0.00463631 -0.000148395 9.59143
0.055 0.01 -0.0463984 -0.0036409 -0.000128109 8.4771
0.06 0.01 -0.0409713 -0.00291609 -0.000111986 7.55309
0.065 0.01 -0.0365076 -0.00237281 -9.89482e-05 6.78105
0.07 0.01 -0.0327972 -0.00195579 -8.82576e-05 6.13117
0.075 0.01 -0.0296849 -0.00162936 -7.93902e-05 5.58039
0.08 0.01 -0.027054 -0.00136961 -7.19639e-05 5.11073
0.085 0.01 -0.024815 -0.00116003 -6.5694e-05 4.70807
0.09 0.01 -0.0228985 -0.00098889 -6.03635e-05 4.3612
0.095 0.01 -0.0212498 -0.000847676 -5.58049e-05 4.06113
0.1 0.01 -0.0198253 -0.000730067 -5.18866e-05 3.80062
0.105 0.01 -0.01859 -0.000631301 -4.85041e-05 3.57373
0.11 0.01 -0.0175153 -0.000547733 -4.55734e-05 3.37561
0.115 0.01 -0.0165781 -0.00047654 -4.30266e-05 3.20225
0.12 0.01 -0.015759 -0.000415505 -4.08079e-05 3.05028
0.125 0.01 -0.0150421 -0.000362876 -3.88714e-05 2.9169
0.13 0.01 -0.0144139 -0.000317251 -3.71789e-05 2.79975
0.135 0.01 -0.0138633 -0.000277501 -3.56987e-05 2.69682
0.14 0.01 -0.0133805 -0.000242709 -3.44038e-05 2.6064
0.145 0.01 -0.0129576 -0.000212126 -3.32714e-05 2.52705
0.15 0.01 -0.0125875 -0.000185135 -3.22824e-05 2.45749
0.155 0.01 -0.0122644 -0.000161228 -3.142e-05 2.39664
0.16 0.01 -0.0119829 -0.000139979 -3.067e-05 2.34356
0.165 0.01 -0.0117386 -0.000121035 -3.002e-05 2.29742
0.17 0.01 -0.0115277 -0.000104096 -2.94595e-05 2.25752
0.175 0.01 -0.0113466 -8.89125e-05 -2.8979e-05 2.22321
0.18 0.01 -0.0111924 -7.52699e-05 -2.85703e-05 2.19393
0.185 0.01 -0.0110624 -6.29871e-05 -2.82262e-05 2.1692
0.19 0.01 -0.0109542 -5.19093e-05 -2.79403e-05 2.14857
0.195 0.01 -0.0108658 -4.19037e-05 -2.7707e-05 2.13164
0.2 0.01 -0.0107951 -3.28562e-05 -2.75212e-05 2.11808
0.205 0.01 -0.0107407 -2.46684e-05 -2.73784e-05 2.10755
0.21 0.01 -0.0107008 -1.72554e-05 -2.72745e-05 2.09977
0.215 0.01 -0.0106742 -1.05433e-05 -2.72058e-05 2.09449
0.22 0.01 -0.0106595 -4.46807e-06 -2.7169e-05 2.09145
0.225 0.01 -0.0106558 1.02603e-06 -2.71611e-05 2.09046
0.23 0.01 -0.0106618 5.98774e-06 -2.71792e-05 2.09131
0.235 0.01 -0.0106766 1.04597e-05 -2.72209e-05 2.09381
0.24 0.01 -0.0106994 1.44792e-05 -2.72838e-05 2.0978
0.245 0.01 -0.0107293 1.80793e-05 -2.73657e-05 2.10312
0.25 0.01 -0.0107655 2.12887e-05 -2.74646e-05 2.10963
0.255 0.01 -0.0108073 2.41332e-05 -2.75786e-05 2.11718
0.26 0.01 -0.0108542 2.66353e-05 -2.7706e-05 2.12566
0.265 0.01 -0.0109053 2.88152e-05 -2.7845e-05 2.13493
0.27 0.01 -0.0109602 3.06909e-05 -2.79942e-05 2.14488
0.275 0.01 -0.0110182 3.22784e-05 -2.8152e-05 2.15542
0.28 0.01 -0.0110789 3.35923e-05 -2.83171e-05 2.16643
0.285 0.01 -0.0111417 3.46456e-05 -2.8488e-05 2.17782
0.29 0.01 -0.0112061 3.54502e-05 -2.86636e-05 2.1895
0.295 0.01 -0.0112717 3.60169e-05 -2.88426e-05 2.20138
0.3 0.01 -0.0113381 3.63559e-05 -2.90239e-05 2.21338
0.305 0.01 -0.0114048 3.64763e-05 -2.92063e-05 2.22541
0.31 0.01 -0.0114713 3.6387e-05 -2.93888e-05 2.2374
0.315 0.01 -0.0115374 3.6096e-05 -2.95703e-05 2.24928
0.32 0.01 -0.0116027 3.56111e-05 -2.97499e-05 2.26097
0.325 0.01 -0.0116667 3.49399e-05 -2.99266e-05 2.27241
0.33 0.01 -0.0117292 3.40896e-05 -3.00995e-05 2.28353
0.335 0.01 -0.0117897 3.3067e-05 -3.02677e-05 2.29427
0.34 0.01 -0.0118481 3.18792e-05 -3.04303e-05 2.30458
0.345 0.01 -0.011904 3.0533e-05 -3.05867e-05 2.31438
0.35 0.01 -0.0119571 2.90349e-05 -3.07359e-05 2.32365
0.355 0.01 -0.0120071 2.73919e-05 -3.08772e-05 2.33231
0.36 0.01 -0.0120537 2.56106e-05 -3.101e-05 2.34032
0.365 0.01 -0.0120968 2.36977e-05 -3.11336e-05 2.34764
0.37 0.01 -0.012136 2.16601e-05 -3.12473e-05 2.35421
0.375 0.01 -0.0121712 1.95047e-05 -3.13504e-05 2.36001
0.38 0.01 -0.0122021 1.72384e-05 -3.14426e-05 2.36499
0.385 0.01 -0.0122286 1.48683e-05 -3.15231e-05 2.36912
0.39 0.01 -0.0122504 1.24015e-05 -3.15915e-05 2.37236
0.395 0.01 -0.0122675 9.84517e-06 -3.16474e-05 2.37468
0.4 0.01 -0.0122795 7.20661e-06 -3.16903e-05 2.37606
0.405 0.01 -0.0122865 4.49319e-06 -3.17198e-05 2.37647
0.41 0.01 -0.0122882 1.71233e-06 -3.17355e-05 2.37588
0.415 0.01 -0.0122846 -1.1285e-06 -3.17372e-05 2.37428
0.42 0.01 -0.0122755 -4.02178e-06 -3.17245e-05 2.37165
0.425 0.01 -0.0122609 -6.95996e-06 -3.16973e-05 2.36798
0.43 0.01 -0.0122406 -9.93549e-06 -3.16553e-05 2.36325
0.435 0.01 -0.0122148 -1.29408e-05 -3.15983e-05 2.35745
0.44 0.01 -0.0121832 -1.59684e-05 -3.15262e-05 2.35059
0.445 0.01 -0.0121459 -1.90108e-05 -3.14389e-05 2.34264
0.45 0.01 -0.0121028 -2.20606e-05 -3.13364e-05 2.33362
0.455 0.01 -0.012054 -2.51105e-05 -3.12186e-05 2.32352
0.46 0.01 -0.0119995 -2.81532e-05 -3.10856e-05 2.31235
0.465 0.01 -0.0119393 -3.11816e-05 -3.09375e-05 2.30011
0.47 0.01 -0.0118733 -3.41889e-05 -3.07742e-05 2.28682
0.475 0.01 -0.0118018 -3.71681e-05 -3.05959e-05 2.27247
0.48 0.01 -0.0117247 -4.01128e-05 -3.04028e-05 2.25709
0.485 0.01 -0.0116422 -4.30165e-05 -3.01951e-05 2.24069
0.49 0.01 -0.0115542 -4.58731e-05 -2.9973e-05 2.22329
0.495 0.01 -0.011461 -4.86767e-05 -2.97368e-05 2.20491
0.5 0.01 -0.0113625 -5.14216e-05 -2.94866e-05 2.18556
0.505 0.01 -0.0112591 -5.41025e-05 -2.92229e-05 2.16527
0.51 0.01 -0.0111506 -5.67142e-05 -2.89459e-05 2.14407
0.515 0.01 -0.0110374 -5.92519e-05 -2.86561e-05 2.12198
0.52 0.01 -0.0109195 -6.17113e-05 -2.83537e-05 2.09903
0.525 0.01 -0.0107971 -6.40881e-05 -2.80393e-05 2.07525
0.53 0.01 -0.0106704 -6.63786e-05 -2.77132e-05 2.05066
0.535 0.01 -0.0105395 -6.85792e-05 -2.73758e-05 2.02531
0.54 0.01 -0.0104046 -7.06868e-05 -2.70277e-05 1.99921
0.545 0.01 -0.0102658 -7.26987e-05 -2.66693e-05 1.97241
0.55 0.01 -0.0101235 -7.46123e-05 -2.6301e-05 1.94495
0.555 0.01 -0.00997766 -7.64257e-05 -2.59235e-05 1.91684
0.56 0.01 -0.00982857 -7.81369e-05 -2.55371e-05 1.88814
0.565 0.01 -0.00967641 -7.97447e-05 -2.51424e-05 1.85887
0.57 0.01 -0.00952138 -8.12479e-05 -2.47399e-05 1.82908
0.575 0.01 -0.00936367 -8.26458e-05 -2.43302e-05 1.79879
0.58 0.01 -0.00920347 -8.3938e-05 -2.39138e-05 1.76805
0.585 0.01 -0.00904099 -8.51243e-05 -2.34911e-05 1.73689
0.59 0.01 -0.00887643 -8.62049e-05 -2.30628e-05 1.70535
0.595 0.01 -0.00870997 -8.71803e-05 -2.26293e-05 1.67347
0.6 0.01 -0.00854182 -8.80512e-05 -2.21912e-05 1.64127
0.605 0.01 -0.00837216 -8.88187e-05 -2.17491e-05 1.60881
0.61 0.01 -0.0082012 -8.94838e-05 -2.13033e-05 1.5761
0.615 0.01 -0.00802912 -9.00482e-05 -2.08545e-05 1.5432
0.62 0.01 -0.0078561 -9.05135e-05 -2.0403e-05 1.51012
0.625 0.01 -0.00768233 -9.08816e-05 -1.99495e-05 1.47691
0.63 0.01 -0.00750799 -9.11546e-05 -1.94944e-05 1.44361
0.635 0.01 -0.00733326 -9.13345e-05 -1.90382e-05 1.41023
0.64 0.01 -0.00715829 -9.14239e-05 -1.85813e-05 1.37681
0.645 0.01 -0.00698327 -9.14252e-05 -1.81241e-05 1.34339
0.65 0.01 -0.00680835 -9.1341e-05 -1.76672e-05 1.30999
0.655 0.01 -0.00663368 -9.1174e-05 -1.72109e-05 1.27665
0.66 0.01 -0.00645943 -9.09268e-05 -1.67556e-05 1.24338
0.665 0.01 -0.00628573 -9.06025e-05 -1.63018e-05 1.21023
0.67 0.01 -0.00611273 -9.02037e-05 -1.58498e-05 1.1772
0.675 0.01 -0.00594056 -8.97334e-05 -1.53999e-05 1.14434
0.68 0.01 -0.00576936 -8.91945e-05 -1.49526e-05 1.11166
0.685 0.01 -0.00559924 -8.85898e-05 -1.45081e-05 1.07918
0.69 0.01 -0.00543034 -8.79223e-05 -1.40668e-05 1.04694
0.695 0.01 -0.00526276 -8.71947e-05 -1.3629e-05 1.01494
0.7 0.01 -0.00509661 -8.64099e-05 -1.3195e-05 0.983216
0.705 0.01 -0.00493201 -8.55706e-05 -1.2765e-05 0.951781
0.71 0.01 -0.00476904 -8.46795e-05 -1.23393e-05 0.920654
0.715 0.01 -0.0046078 -8.37393e-05 -1.19183e-05 0.889854
0.72 0.01 -0.00444839 -8.27523e-05 -1.1502e-05 0.859397
0.725 0.01 -0.00429088 -8.17212e-05 -1.10908e-05 0.8293
0.73 0.01 -0.00413537 -8.06482e-05 -1.06849e-05 0.799576
0.735 0.01 -0.00398192 -7.95357e-05 -1.02844e-05 0.770242
0.74 0.01 -0.00383061 -7.83857e-05 -9.88961e-06 0.74131
0.745 0.01 -0.00368151 -7.72003e-05 -9.50063e-06 0.712794
0.75 0.01 -0.00353468 -7.59815e-05 -9.11766e-06 0.684706
0.755 0.01 -0.00339018 -7.47311e-05 -8.74087e-06 0.657058
0.76 0.01 -0.00324808 -7.34507e-05 -8.3704e-06 0.629861
0.765 0.01 -0.00310843 -7.21421e-05 -8.0064e-06 0.603125
0.77 0.01 -0.00297128 -7.08067e-05 -7.64901e-06 0.576861
0.775 0.01 -0.00283668 -6.94459e-05 -7.29837e-06 0.551079
0.78 0.01 -0.00270468 -6.80609e-05 -6.95458e-06 0.525787
0.785 0.01 -0.00257533 -6.66529e-05 -6.61778e-06 0.500994
0.79 0.01 -0.00244866 -6.5223e-05 -6.28808e-06 0.476709
0.795 0.01 -0.00232473 -6.37722e-05 -5.96557e-06 0.452939
0.8 0.01 -0.00220357 -6.23012e-05 -5.65037e-06 0.429694
0.805 0.01 -0.00208521 -6.08108e-05 -5.34257e-06 0.40698
0.81 0.01 -0.0019697 -5.93017e-05 -5.04227e-06 0.384804
0.815 0.01 -0.00185708 -5.77745e-05 -4.74956e-06 0.363174
0.82 0.01 -0.00174737 -5.62295e-05 -4.46453e-06 0.342097
0.825 0.01 -0.00164062 -5.46673e-05 -4.18727e-06 0.321579
0.83 0.01 -0.00153685 -5.3088e-05 -3.91786e-06 0.301628
0.835 0.01 -0.0014361 -5.1492e-05 -3.65639e-06 0.28225
0.84 0.01 -0.0013384 -4.98794e-05 -3.40294e-06 0.263451
0.845 0.01 -0.0012438 -4.82502e-05 -3.1576e-06 0.245238
0.85 0.01 -0.00115231 -4.66044e-05 -2.92044e-06 0.227618
0.855 0.01 -0.00106397 -4.49419e-05 -2.69155e-06 0.210598
0.86 0.01 -0.000978815 -4.32626e-05 -2.47101e-06 0.194183
0.865 0.01 -0.000896881 -4.15663e-05 -2.25891e-06 0.17838
0.87 0.01 -0.000818199 -3.98526e-05 -2.05534e-06 0.163197
0.875 0.01 -0.000742805 -3.81211e-05 -1.86038e-06 0.14864
0.88 0.01 -0.000670733 -3.63714e-05 -1.67412e-06 0.134715
0.885 0.01 -0.000602019 -3.4603e-05 -1.49666e-06 0.12143
0.89 0.01 -0.0005367 -3.28153e-05 -1.32808e-06 0.108793
0.895 0.01 -0.000474814 -3.10076e-05 -1.1685e-06 0.0968091
0.9 0.01 -0.000416398 -2.91793e-05 -1.018e-06 0.0854869
0.905 0.01 -0.000361493 -2.73296e-05 -8.76696e-07 0.0748333
0.91 0.01 -0.000310137 -2.54579e-05 -7.44695e-07 0.0648557
0.915 0.01 -0.000262373 -2.35635e-05 -6.2211e-07 0.0555613
0.92 0.01 -0.00021824 -2.16458e-05 -5.09054e-07 0.0469573
0.925 0.01 -0.000177779 -1.97046e-05 -4.05645e-07 0.0390504
0.93 0.01 -0.00014103 -1.77399e-05 -3.12002e-07 0.0318469
0.935 0.01 -0.000108029 -1.57524e-05 -2.2824e-07 0.0253521
0.94 0.01 -7.8811e-05 -1.37437e-05 -1.54472e-07 0.0195702
0.945 0.01 -5.34009e-05 -1.17168e-05 -9.07989e-08 0.0145033
0.95 0.01 -3.18155e-05 -9.67687e-06 -3.73007e-08 0.010151
0.955 0.01 -1.4055e-05 -7.63242e-06 5.97321e-09 0.00650857
0.96 0.01 -9.63105e-08 -5.59692e-06 3.90262e-08 0.0035659
0.965 0.01 1.01192e-05 -3.59167e-06 6.19445e-08 0.00130451
0.97 0.01 1.67024e-05 -1.65024e-06 7.49445e-08 -0.000305622
0.975 0.01 1.98416e-05 1.74097e-07 7.8448e-08 -0.00131097
0.98 0.01 1.98404e-05 1.79597e-06 7.32042e-08 -0.00178101
0.985 0.01 1.71727e-05 3.07759e-06 6.04887e-08 -0.00181624
0.99 0.01 1.25613e-05 3.79928e-06 4.24284e-08 -0.0015554
0.995 0.01 7.07931e-06 3.63651e-06 2.24958e-08 -0.00117208
1 0.01 2.24564e-06 2.24958e-06 6.0632e-09 -0.00082798
0 0.015 0 0 -0.00179651 0
0.005 0.015 0 0 0 -256.034
0.01 0.015 -0.152643 0.184495 -0.00179958 -79.3516
0.015 0.015 -0.20567 -0.0242492 -0.00184495 -16.67
0.02 0.015 -0.203737 -0.0577532 -0.00155708 2.3892
0.025 0.015 -0.183728 -0.0522347 -0.00126742 8.08072
0.03 0.015 -0.160599 -0.0410971 -0.00103474 9.4557
0.035 0.015 -0.139323 -0.0314744 -0.000856447 9.36285
0.04 0.015 -0.121109 -0.0242261 -0.000719993 8.78333
0.045 0.015 -0.105893 -0.0189209 -0.000614186 8.07631
0.05 0.015 -0.0932567 -0.0150203 -0.000530784 7.37569
0.055 0.015 -0.0827443 -0.012107 -0.000463983 6.72899
0.06 0.015 -0.0739561 -0.00989076 -0.000409713 6.1496
0.065 0.015 -0.0665656 -0.00817413 -0.000365075 5.6374
0.07 0.015 -0.0603126 -0.00682264 -0.000327971 5.18724
0.075 0.015 -0.0549915 -0.00574312 -0.000296849 4.79247
0.08 0.015 -0.0504391 -0.00486983 -0.000270539 4.44637
0.085 0.015 -0.0465255 -0.00415543 -0.00024815 4.14274
0.09 0.015 -0.0431465 -0.00356518 -0.000228985 3.87606
0.095 0.015 -0.040218 -0.00307317 -0.000212497 3.64152
0.1 0.015 -0.0376714 -0.00265977 -0.000198252 3.43498
0.105 0.015 -0.0354504 -0.00230988 -0.000185899 3.25287
0.11 0.015 -0.0335088 -0.00201178 -0.000175153 3.09212
0.115 0.015 -0.0318079 -0.00175624 -0.000165781 2.95012
0.12 0.015 -0.0303157 -0.00153595 -0.00015759 2.8246
0.125 0.015 -0.0290051 -0.00134505 -0.000150421 2.71363
0.13 0.015 -0.0278532 -0.0011788 -0.000144139 2.61551
0.135 0.015 -0.0268407 -0.00103337 -0.000138632 2.5288
0.14 0.015 -0.0259509 -0.000905608 -0.000133805 2.45223
0.145 0.015 -0.0251697 -0.000792928 -0.000129575 2.38471
0.15 0.015 -0.0244848 -0.000693185 -0.000125875 2.32528
0.155 0.015 -0.0238856 -0.000604595 -0.000122643 2.27309
0.16 0.015 -0.023363 -0.000525665 -0.000119828 2.22741
0.165 0.015 -0.0229088 -0.00045514 -0.000117386 2.18758
0.17 0.015 -0.0225161 -0.000391961 -0.000115277 2.15302
0.175 0.015 -0.0221786 -0.00033523 -0.000113466 2.12322
0.18 0.015 -0.0218908 -0.000284182 -0.000111924 2.09773
0.185 0.015 -0.021648 -0.000238164 -0.000110624 2.07612
0.19 0.015 -0.0214457 -0.000196618 -0.000109542 2.05805
0.195 0.015 -0.0212801 -0.000159061 -0.000108657 2.04317
0.2 0.015 -0.0211478 -0.00012508 -0.000107951 2.03119
0.205 0.015 -0.0210455 -9.43156e-05 -0.000107406 2.02183
0.21 0.015 -0.0209706 -6.64561e-05 -0.000107008 2.01486
0.215 0.015 -0.0209203 -4.12315e-05 -0.000106742 2.01004
0.22 0.015 -0.0208924 -1.8406e-05 -0.000106595 2.00717
0.225 0.015 -0.0208847 2.22619e-06 -0.000106558 2.00607
0.23 0.015 -0.0208952 2.08454e-05 -0.000106618 2.00655
0.235 0.015 -0.0209222 3.76098e-05 -0.000106766 2.00845
0.24 0.015 -0.0209639 5.26585e-05 -0.000106994 2.01163
0.245 0.015 -0.0210189 6.61141e-05 -0.000107293 2.01595
0.25 0.015 -0.0210856 7.80851e-05 -0.000107655 2.02127
0.255 0.015 -0.0211627 8.86675e-05 -0.000108074 2.02748
0.26 0.015 -0.021249 9.79467e-05 -0.000108542 2.03446
0.265 0.015 -0.0213432 0.000105999 -0.000109053 2.0421
0.27 0.015 -0.0214442 0.000112892 -0.000109602 2.0503
0.275 0.015 -0.0215509 0.000118688 -0.000110182 2.05896
0.28 0.015 -0.0216623 0.000123442 -0.000110789 2.068
0.285 0.015 -0.0217775 0.000127204 -0.000111417 2.07732
0.29 0.015 -0.0218956 0.00013002 -0.000112062 2.08685
0.295 0.015 -0.0220156 0.000131931 -0.000112718 2.09651
0.3 0.015 -0.0221368 0.000132978 -0.000113381 2.10621
0.305 0.015 -0.0222582 0.000133195 -0.000114048 2.1159
0.31 0.015 -0.0223793 0.000132618 -0.000114714 2.1255
0.315 0.015 -0.0224992 0.000131278 -0.000115375 2.13494
0.32 0.015 -0.0226172 0.000129205 -0.000116027 2.14417
0.325 0.015 -0.0227326 0.00012643 -0.000116668 2.15313
0.33 0.015 -0.0228449 0.00012298 -0.000117292 2.16175
0.335 0.015 -0.0229533 0.000118883 -0.000117898 2.16999
0.34 0.015 -0.0230574 0.000114167 -0.000118482 2.17779
0.345 0.015 -0.0231564 0.000108857 -0.000119041 2.18511
0.35 0.015 -0.02325 0.000102981 -0.000119571 2.1919
0.355 0.015 -0.0233375 9.6564e-05 -0.000120071 2.19812
0.36 0.015 -0.0234185 8.96335e-05 -0.000120538 2.20372
0.365 0.015 -0.0234926 8.22155e-05 -0.000120969 2.20866
0.37 0.015 -0.0235592 7.43366e-05 -0.000121361 2.21292
0.375 0.015 -0.023618 6.60236e-05 -0.000121713 2.21645
0.38 0.015 -0.0236685 5.73032e-05 -0.000122022 2.21923
0.385 0.015 -0.0237106 4.82028e-05 -0.000122287 2.22122
0.39 0.015 -0.0237437 3.87497e-05 -0.000122505 2.2224
0.395 0.015 -0.0237676 2.89716e-05 -0.000122676 2.22275
0.4 0.015 -0.023782 1.88964e-05 -0.000122796 2.22224
0.405 0.015 -0.0237866 8.55203e-06 -0.000122866 2.22085
0.41 0.015 -0.0237813 -2.03318e-06 -0.000122883 2.21857
0.415 0.015 -0.0237659 -1.28309e-05 -0.000122847 2.21538
0.42 0.015 -0.0237401 -2.38128e-05 -0.000122756 2.21127
0.425 0.015 -0.0237038 -3.49503e-05 -0.00012261 2.20623
0.43 0.015 -0.0236569 -4.6215e-05 -0.000122408 2.20026
0.435 0.015 -0.0235993 -5.75788e-05 -0.000122149 2.19334
0.44 0.015 -0.0235309 -6.90133e-05 -0.000121833 2.18547
0.445 0.015 -0.0234517 -8.04908e-05 -0.00012146 2.17666
0.45 0.015 -0.0233617 -9.19837e-05 -0.00012103 2.16691
0.455 0.015 -0.0232609 -0.000103465 -0.000120542 2.15621
0.46 0.015 -0.0231494 -0.000114907 -0.000119996 2.14458
0.465 0.015 -0.0230271 -0.000126285 -0.000119394 2.13202
0.47 0.015 -0.0228942 -0.000137572 -0.000118735 2.11854
0.475 0.015 -0.0227507 -0.000148744 -0.000118019 2.10415
0.48 0.015 -0.0225969 -0.000159776 -0.000117249 2.08887
0.485 0.015 -0.0224328 -0.000170646 -0.000116423 2.07271
0.49 0.015 -0.0222587 -0.00018133 -0.000115544 2.05569
0.495 0.015 -0.0220747 -0.000191807 -0.000114611 2.03782
0.5 0.015 -0.021881 -0.000202056 -0.000113627 2.01913
0.505 0.015 -0.0216779 -0.000212059 -0.000112592 1.99964
0.51 0.015 -0.0214656 -0.000221796 -0.000111508 1.97937
0.515 0.015 -0.0212444 -0.00023125 -0.000110375 1.95834
0.52 0.015 -0.0210145 -0.000240405 -0.000109196 1.93658
0.525 0.015 -0.0207763 -0.000249247 -0.000107972 1.91412
0.53 0.015 -0.0205301 -0.000257761 -0.000106705 1.89097
0.535 0.015 -0.0202761 -0.000265935 -0.000105396 1.86718
0.54 0.015 -0.0200147 -0.000273758 -0.000104047 1.84276
0.545 0.015 -0.0197462 -0.000281221 -0.00010266 1.81775
0.55 0.015 -0.019471 -0.000288313 -0.000101236 1.79218
0.555 0.015 -0.0191894 -0.000295029 -9.97778e-05 1.76608
0.56 0.015 -0.0189018 -0.000301362 -9.82869e-05 1.73948
0.565 0.015 -0.0186085 -0.000307307 -9.67653e-05 1.7124
0.57 0.015 -0.01831 -0.000312861 -9.52149e-05 1.68489
0.575 0.015 -0.0180065 -0.00031802 -9.36378e-05 1.65697
0.58 0.015 -0.0176984 -0.000322785 -9.20358e-05 1.62867
0.585 0.015 -0.0173862 -0.000327154 -9.0411e-05 1.60003
0.59 0.015 -0.0170701 -0.000331129 -8.87653e-05 1.57108
0.595 0.015 -0.0167506 -0.000334712 -8.71007e-05 1.54184
0.6 0.015 -0.016428 -0.000337905 -8.54191e-05 1.51235
0.605 0.015 -0.0161027 -0.000340712 -8.37226e-05 1.48264
0.61 0.015 -0.015775 -0.000343139 -8.20129e-05 1.45274
0.615 0.015 -0.0154452 -0.00034519 -8.02921e-05 1.42268
0.62 0.015 -0.0151138 -0.000346873 -7.85619e-05 1.39249
0.625 0.015 -0.014781 -0.000348194 -7.68242e-05 1.3622
0.63 0.015 -0.0144473 -0.000349161 -7.50808e-05 1.33183
0.635 0.015 -0.0141128 -0.000349781 -7.33334e-05 1.30141
0.64 0.015 -0.013778 -0.000350065 -7.15837e-05 1.27097
0.645 0.015 -0.0134431 -0.000350021 -6.98334e-05 1.24054
0.65 0.015 -0.0131085 -0.000349659 -6.80842e-05 1.21014
0.655 0.015 -0.0127744 -0.000348988 -6.63375e-05 1.17979
0.66 0.015 -0.0124411 -0.00034802 -6.45949e-05 1.14953
0.665 0.015 -0.012109 -0.000346763 -6.28579e-05 1.11936
0.67 0.015 -0.0117781 -0.000345229 -6.11279e-05 1.08932
0.675 0.015 -0.0114489 -0.000343429 -5.94062e-05 1.05943
0.68 0.015 -0.0111215 -0.000341373 -5.76941e-05 1.0297
0.685 0.015 -0.0107962 -0.000339071 -5.59929e-05 1.00016
0.69 0.015 -0.0104732 -0.000336534 -5.43039e-05 0.970824
0.695 0.015 -0.0101527 -0.000333773 -5.26281e-05 0.941713
0.7 0.015 -0.00983492 -0.000330798 -5.09666e-05 0.912844
0.705 0.015 -0.00952006 -0.000327619 -4.93205e-05 0.884233
0.71 0.015 -0.00920831 -0.000324245 -4.76908e-05 0.855897
0.715 0.015 -0.00889984 -0.000320687 -4.60784e-05 0.82785
0.72 0.015 -0.00859481 -0.000316954 -4.44842e-05 0.800108
0.725 0.015 -0.0082934 -0.000313054 -4.29092e-05 0.772684
0.73 0.015 -0.00799574 -0.000308996 -4.1354e-05 0.745592
0.735 0.015 -0.00770199 -0.000304789 -3.98195e-05 0.718844
0.74 0.015 -0.00741228 -0.00030044 -3.83063e-05 0.692453
0.745 0.015 -0.00712674 -0.000295957 -3.68153e-05 0.666429
0.75 0.015 -0.0068455 -0.000291347 -3.5347e-05 0.640785
0.755 0.015 -0.00656867 -0.000286617 -3.3902e-05 0.615531
0.76 0.015 -0.00629637 -0.000281772 -3.2481e-05 0.590676
0.765 0.015 -0.00602869 -0.00027682 -3.10844e-05 0.566231
0.77 0.015 -0.00576575 -0.000271764 -2.97129e-05 0.542204
0.775 0.015 -0.00550763 -0.000266611 -2.83669e-05 0.518604
0.78 0.015 -0.00525443 -0.000261364 -2.70469e-05 0.49544
0.785 0.015 -0.00500624 -0.000256029 -2.57534e-05 0.47272
0.79 0.015 -0.00476313 -0.000250609 -2.44867e-05 0.450451
0.795 0.015 -0.0045252 -0.000245106 -2.32474e-05 0.428642
0.8 0.015 -0.00429251 -0.000239526 -2.20357e-05 0.4073
0.805 0.015 -0.00406515 -0.000233869 -2.08522e-05 0.386431
0.81 0.015 -0.00384319 -0.000228139 -1.96971e-05 0.366044
0.815 0.015 -0.00362669 -0.000222337 -1.85708e-05 0.346144