Title=" Lid Driven Flow"
VARIABLES="X","Y","U","V","psi","xi"
ZONE T= "BOX", I= 201, J=201, F=POINT
0 0 0 0 0.00173814 0
0.005 0 0 0 0 0
0.01 0 0 0 0 0
0.015 0 0 0 0 161.89
0.02 0 0 0 0 176.127
0.025 0 0 0 0 155.621
0.03 0 0 0 0 133.249
0.035 0 0 0 0 115.749
0.04 0 0 0 0 102.912
0.045 0 0 0 0 93.3926
0.05 0 0 0 0 86.0778
0.055 0 0 0 0 80.234
0.06 0 0 0 0 75.4026
0.065 0 0 0 0 71.2948
0.07 0 0 0 0 67.7237
0.075 0 0 0 0 64.5634
0.08 0 0 0 0 61.7263
0.085 0 0 0 0 59.15
0.09 0 0 0 0 56.7885
0.095 0 0 0 0 54.6074
0.1 0 0 0 0 52.5806
0.105 0 0 0 0 50.6876
0.11 0 0 0 0 48.9124
0.115 0 0 0 0 47.2422
0.12 0 0 0 0 45.6665
0.125 0 0 0 0 44.1766
0.13 0 0 0 0 42.7652
0.135 0 0 0 0 41.426
0.14 0 0 0 0 40.1535
0.145 0 0 0 0 38.9431
0.15 0 0 0 0 37.7904
0.155 0 0 0 0 36.6915
0.16 0 0 0 0 35.6431
0.165 0 0 0 0 34.6418
0.17 0 0 0 0 33.6846
0.175 0 0 0 0 32.7688
0.18 0 0 0 0 31.8918
0.185 0 0 0 0 31.0511
0.19 0 0 0 0 30.2445
0.195 0 0 0 0 29.4697
0.2 0 0 0 0 28.7247
0.205 0 0 0 0 28.0077
0.21 0 0 0 0 27.3166
0.215 0 0 0 0 26.6499
0.22 0 0 0 0 26.0058
0.225 0 0 0 0 25.3829
0.23 0 0 0 0 24.7795
0.235 0 0 0 0 24.1944
0.24 0 0 0 0 23.6262
0.245 0 0 0 0 23.0737
0.25 0 0 0 0 22.5358
0.255 0 0 0 0 22.0112
0.26 0 0 0 0 21.4991
0.265 0 0 0 0 20.9984
0.27 0 0 0 0 20.5082
0.275 0 0 0 0 20.0277
0.28 0 0 0 0 19.5562
0.285 0 0 0 0 19.0928
0.29 0 0 0 0 18.637
0.295 0 0 0 0 18.1882
0.3 0 0 0 0 17.7456
0.305 0 0 0 0 17.309
0.31 0 0 0 0 16.8778
0.315 0 0 0 0 16.4515
0.32 0 0 0 0 16.0299
0.325 0 0 0 0 15.6126
0.33 0 0 0 0 15.1993
0.335 0 0 0 0 14.7898
0.34 0 0 0 0 14.3839
0.345 0 0 0 0 13.9814
0.35 0 0 0 0 13.5823
0.355 0 0 0 0 13.1863
0.36 0 0 0 0 12.7936
0.365 0 0 0 0 12.404
0.37 0 0 0 0 12.0176
0.375 0 0 0 0 11.6343
0.38 0 0 0 0 11.2544
0.385 0 0 0 0 10.8778
0.39 0 0 0 0 10.5047
0.395 0 0 0 0 10.1352
0.4 0 0 0 0 9.76944
0.405 0 0 0 0 9.40766
0.41 0 0 0 0 9.05001
0.415 0 0 0 0 8.6967
0.42 0 0 0 0 8.34794
0.425 0 0 0 0 8.00395
0.43 0 0 0 0 7.66498
0.435 0 0 0 0 7.33124
0.44 0 0 0 0 7.00299
0.445 0 0 0 0 6.68046
0.45 0 0 0 0 6.36389
0.455 0 0 0 0 6.05351
0.46 0 0 0 0 5.74955
0.465 0 0 0 0 5.45222
0.47 0 0 0 0 5.16175
0.475 0 0 0 0 4.87834
0.48 0 0 0 0 4.60215
0.485 0 0 0 0 4.33338
0.49 0 0 0 0 4.07217
0.495 0 0 0 0 3.81867
0.5 0 0 0 0 3.57299
0.505 0 0 0 0 3.33524
0.51 0 0 0 0 3.1055
0.515 0 0 0 0 2.88383
0.52 0 0 0 0 2.67028
0.525 0 0 0 0 2.46485
0.53 0 0 0 0 2.26757
0.535 0 0 0 0 2.07839
0.54 0 0 0 0 1.89729
0.545 0 0 0 0 1.7242
0.55 0 0 0 0 1.55904
0.555 0 0 0 0 1.40172
0.56 0 0 0 0 1.25212
0.565 0 0 0 0 1.11011
0.57 0 0 0 0 0.97554
0.575 0 0 0 0 0.848259
0.58 0 0 0 0 0.728089
0.585 0 0 0 0 0.614848
0.59 0 0 0 0 0.508342
0.595 0 0 0 0 0.408367
0.6 0 0 0 0 0.314715
0.605 0 0 0 0 0.227168
0.61 0 0 0 0 0.145506
0.615 0 0 0 0 0.0695038
0.62 0 0 0 0 -0.00106538
0.625 0 0 0 0 -0.0664305
0.63 0 0 0 0 -0.126821
0.635 0 0 0 0 -0.182465
0.64 0 0 0 0 -0.233592
0.645 0 0 0 0 -0.280426
0.65 0 0 0 0 -0.323192
0.655 0 0 0 0 -0.362108
0.66 0 0 0 0 -0.397391
0.665 0 0 0 0 -0.429254
0.67 0 0 0 0 -0.457903
0.675 0 0 0 0 -0.483541
0.68 0 0 0 0 -0.506365
0.685 0 0 0 0 -0.526564
0.69 0 0 0 0 -0.544325
0.695 0 0 0 0 -0.559824
0.7 0 0 0 0 -0.573231
0.705 0 0 0 0 -0.58471
0.71 0 0 0 0 -0.594414
0.715 0 0 0 0 -0.60249
0.72 0 0 0 0 -0.609076
0.725 0 0 0 0 -0.614298
0.73 0 0 0 0 -0.618276
0.735 0 0 0 0 -0.621117
0.74 0 0 0 0 -0.622919
0.745 0 0 0 0 -0.623772
0.75 0 0 0 0 -0.623752
0.755 0 0 0 0 -0.622927
0.76 0 0 0 0 -0.621355
0.765 0 0 0 0 -0.619084
0.77 0 0 0 0 -0.616152
0.775 0 0 0 0 -0.612588
0.78 0 0 0 0 -0.608415
0.785 0 0 0 0 -0.603645
0.79 0 0 0 0 -0.598286
0.795 0 0 0 0 -0.592337
0.8 0 0 0 0 -0.585795
0.805 0 0 0 0 -0.578648
0.81 0 0 0 0 -0.570886
0.815 0 0 0 0 -0.562491
0.82 0 0 0 0 -0.553446
0.825 0 0 0 0 -0.543734
0.83 0 0 0 0 -0.533336
0.835 0 0 0 0 -0.522236
0.84 0 0 0 0 -0.510417
0.845 0 0 0 0 -0.497867
0.85 0 0 0 0 -0.484578
0.855 0 0 0 0 -0.470544
0.86 0 0 0 0 -0.455765
0.865 0 0 0 0 -0.440247
0.87 0 0 0 0 -0.424
0.875 0 0 0 0 -0.407045
0.88 0 0 0 0 -0.389405
0.885 0 0 0 0 -0.371115
0.89 0 0 0 0 -0.352215
0.895 0 0 0 0 -0.332757
0.9 0 0 0 0 -0.312799
0.905 0 0 0 0 -0.29241
0.91 0 0 0 0 -0.271667
0.915 0 0 0 0 -0.25066
0.92 0 0 0 0 -0.229488
0.925 0 0 0 0 -0.20826
0.93 0 0 0 0 -0.187097
0.935 0 0 0 0 -0.166133
0.94 0 0 0 0 -0.145514
0.945 0 0 0 0 -0.125399
0.95 0 0 0 0 -0.105961
0.955 0 0 0 0 -0.0873886
0.96 0 0 0 0 -0.069886
0.965 0 0 0 0 -0.053674
0.97 0 0 0 0 -0.0389905
0.975 0 0 0 0 -0.0260894
0.98 0 0 0 0 -0.0152364
0.985 0 0 0 0 -0.00669839
0.99 0 0 0 0 -0.00071756
0.995 0 0 0 0 0.00254929
1 0 0 0 0 0.003169
0 0.005 0 0 0 0
0.005 0.005 0 0 0 0
0.01 0.005 0 0 0 73.7263
0.015 0.005 0 0 0 62.0226
0.02 0.005 0 0 0 45.6151
0.025 0.005 0 0 0 33.8142
0.03 0.005 0 0 0 25.9252
0.035 0.005 0 0 0 20.5455
0.04 0.005 0 0 0 16.7225
0.045 0.005 0 0 0 13.8928
0.05 0.005 0 0 0 11.726
0.055 0.005 0 0 0 10.0226
0.06 0.005 0 0 0 8.65641
0.065 0.005 0 0 0 7.54401
0.07 0.005 0 0 0 6.62771
0.075 0.005 0 0 0 5.86618
0.08 0.005 0 0 0 5.22886
0.085 0.005 0 0 0 4.69254
0.09 0.005 0 0 0 4.23927
0.095 0.005 0 0 0 3.85491
0.1 0.005 0 0 0 3.52816
0.105 0.005 0 0 0 3.24991
0.11 0.005 0 0 0 3.01272
0.115 0.005 0 0 0 2.81049
0.12 0.005 0 0 0 2.63817
0.125 0.005 0 0 0 2.49157
0.13 0.005 0 0 0 2.36717
0.135 0.005 0 0 0 2.26203
0.14 0.005 0 0 0 2.17367
0.145 0.005 0 0 0 2.09999
0.15 0.005 0 0 0 2.03919
0.155 0.005 0 0 0 1.98975
0.16 0.005 0 0 0 1.95036
0.165 0.005 0 0 0 1.91992
0.17 0.005 0 0 0 1.89746
0.175 0.005 0 0 0 1.88213
0.18 0.005 0 0 0 1.87323
0.185 0.005 0 0 0 1.87012
0.19 0.005 0 0 0 1.87226
0.195 0.005 0 0 0 1.87916
0.2 0.005 0 0 0 1.8904
0.205 0.005 0 0 0 1.90561
0.21 0.005 0 0 0 1.92445
0.215 0.005 0 0 0 1.94662
0.22 0.005 0 0 0 1.97186
0.225 0.005 0 0 0 1.99992
0.23 0.005 0 0 0 2.03058
0.235 0.005 0 0 0 2.06364
0.24 0.005 0 0 0 2.09891
0.245 0.005 0 0 0 2.13622
0.25 0.005 0 0 0 2.17539
0.255 0.005 0 0 0 2.21627
0.26 0.005 0 0 0 2.25872
0.265 0.005 0 0 0 2.30259
0.27 0.005 0 0 0 2.34775
0.275 0.005 0 0 0 2.39405
0.28 0.005 0 0 0 2.44136
0.285 0.005 0 0 0 2.48957
0.29 0.005 0 0 0 2.53853
0.295 0.005 0 0 0 2.58813
0.3 0.005 0 0 0 2.63824
0.305 0.005 0 0 0 2.68873
0.31 0.005 0 0 0 2.73948
0.315 0.005 0 0 0 2.79036
0.32 0.005 0 0 0 2.84126
0.325 0.005 0 0 0 2.89205
0.33 0.005 0 0 0 2.94261
0.335 0.005 0 0 0 2.9928
0.34 0.005 0 0 0 3.04252
0.345 0.005 0 0 0 3.09163
0.35 0.005 0 0 0 3.14002
0.355 0.005 0 0 0 3.18756
0.36 0.005 0 0 0 3.23413
0.365 0.005 0 0 0 3.27961
0.37 0.005 0 0 0 3.32389
0.375 0.005 0 0 0 3.36685
0.38 0.005 0 0 0 3.40838
0.385 0.005 0 0 0 3.44835
0.39 0.005 0 0 0 3.48667
0.395 0.005 0 0 0 3.52322
0.4 0.005 0 0 0 3.5579
0.405 0.005 0 0 0 3.59061
0.41 0.005 0 0 0 3.62126
0.415 0.005 0 0 0 3.64974
0.42 0.005 0 0 0 3.67598
0.425 0.005 0 0 0 3.69989
0.43 0.005 0 0 0 3.72138
0.435 0.005 0 0 0 3.74039
0.44 0.005 0 0 0 3.75685
0.445 0.005 0 0 0 3.77069
0.45 0.005 0 0 0 3.78186
0.455 0.005 0 0 0 3.79031
0.46 0.005 0 0 0 3.79599
0.465 0.005 0 0 0 3.79887
0.47 0.005 0 0 0 3.79892
0.475 0.005 0 0 0 3.7961
0.48 0.005 0 0 0 3.79042
0.485 0.005 0 0 0 3.78185
0.49 0.005 0 0 0 3.77039
0.495 0.005 0 0 0 3.75605
0.5 0.005 0 0 0 3.73884
0.505 0.005 0 0 0 3.71879
0.51 0.005 0 0 0 3.69591
0.515 0.005 0 0 0 3.67024
0.52 0.005 0 0 0 3.64182
0.525 0.005 0 0 0 3.6107
0.53 0.005 0 0 0 3.57694
0.535 0.005 0 0 0 3.54059
0.54 0.005 0 0 0 3.50172
0.545 0.005 0 0 0 3.46041
0.55 0.005 0 0 0 3.41673
0.555 0.005 0 0 0 3.37076
0.56 0.005 0 0 0 3.32261
0.565 0.005 0 0 0 3.27236
0.57 0.005 0 0 0 3.22011
0.575 0.005 0 0 0 3.16597
0.58 0.005 0 0 0 3.11004
0.585 0.005 0 0 0 3.05243
0.59 0.005 0 0 0 2.99326
0.595 0.005 0 0 0 2.93264
0.6 0.005 0 0 0 2.87069
0.605 0.005 0 0 0 2.80753
0.61 0.005 0 0 0 2.74328
0.615 0.005 0 0 0 2.67806
0.62 0.005 0 0 0 2.612
0.625 0.005 0 0 0 2.54521
0.63 0.005 0 0 0 2.47781
0.635 0.005 0 0 0 2.40994
0.64 0.005 0 0 0 2.3417
0.645 0.005 0 0 0 2.27321
0.65 0.005 0 0 0 2.2046
0.655 0.005 0 0 0 2.13596
0.66 0.005 0 0 0 2.06742
0.665 0.005 0 0 0 1.99907
0.67 0.005 0 0 0 1.93103
0.675 0.005 0 0 0 1.86339
0.68 0.005 0 0 0 1.79626
0.685 0.005 0 0 0 1.72971
0.69 0.005 0 0 0 1.66385
0.695 0.005 0 0 0 1.59875
0.7 0.005 0 0 0 1.53449
0.705 0.005 0 0 0 1.47115
0.71 0.005 0 0 0 1.40881
0.715 0.005 0 0 0 1.34751
0.72 0.005 0 0 0 1.28733
0.725 0.005 0 0 0 1.22833
0.73 0.005 0 0 0 1.17054
0.735 0.005 0 0 0 1.11403
0.74 0.005 0 0 0 1.05882
0.745 0.005 0 0 0 1.00496
0.75 0.005 0 0 0 0.952488
0.755 0.005 0 0 0 0.901421
0.76 0.005 0 0 0 0.851788
0.765 0.005 0 0 0 0.803609
0.77 0.005 0 0 0 0.756899
0.775 0.005 0 0 0 0.711673
0.78 0.005 0 0 0 0.667938
0.785 0.005 0 0 0 0.625699
0.79 0.005 0 0 0 0.584961
0.795 0.005 0 0 0 0.54572
0.8 0.005 0 0 0 0.507975
0.805 0.005 0 0 0 0.471718
0.81 0.005 0 0 0 0.436941
0.815 0.005 0 0 0 0.403633
0.82 0.005 0 0 0 0.371782
0.825 0.005 0 0 0 0.341372
0.83 0.005 0 0 0 0.312386
0.835 0.005 0 0 0 0.284807
0.84 0.005 0 0 0 0.258616
0.845 0.005 0 0 0 0.233792
0.85 0.005 0 0 0 0.210313
0.855 0.005 0 0 0 0.188157
0.86 0.005 0 0 0 0.167302
0.865 0.005 0 0 0 0.147723
0.87 0.005 0 0 0 0.129397
0.875 0.005 0 0 0 0.1123
0.88 0.005 0 0 0 0.0964073
0.885 0.005 0 0 0 0.0816941
0.89 0.005 0 0 0 0.0681362
0.895 0.005 0 0 0 0.055709
0.9 0.005 0 0 0 0.0443882
0.905 0.005 0 0 0 0.0341496
0.91 0.005 0 0 0 0.0249688
0.915 0.005 0 0 0 0.0168217
0.92 0.005 0 0 0 0.00968388
0.925 0.005 0 0 0 0.00353065
0.93 0.005 0 0 0 -0.00166327
0.935 0.005 0 0 0 -0.00592419
0.94 0.005 0 0 0 -0.00927999
0.945 0.005 0 0 0 -0.011761
0.95 0.005 0 0 0 -0.013401
0.955 0.005 0 0 0 -0.014239
0.96 0.005 0 0 0 -0.0143212
0.965 0.005 0 0 0 -0.0137046
0.97 0.005 0 0 0 -0.0124612
0.975 0.005 0 0 0 -0.010685
0.98 0.005 0 0 0 -0.00850188
0.985 0.005 0 0 0 -0.00608445
0.99 0.005 0 0 0 -0.00367202
0.995 0.005 0 0 0 -0.00159243
1 0.005 0 0 0 -0.000256837
0 0.01 0 0 -0.000256837 0
0.005 0.01 0 0 0 -326.274
0.01 0.01 -0.179994 0.0775283 -0.000921578 -44.4436
0.015 0.01 -0.18465 -0.0351389 -0.000775283 9.48541
0.02 0.01 -0.155996 -0.0352605 -0.000570189 19.0865
0.025 0.01 -0.127088 -0.0246124 -0.000422678 18.9771
0.03 0.01 -0.103764 -0.0165859 -0.000324065 16.8351
0.035 0.01 -0.085768 -0.0115034 -0.000256818 14.5402
0.04 0.01 -0.0718691 -0.00831582 -0.000209031 12.5217
0.045 0.01 -0.0609805 -0.00624562 -0.00017366 10.8309
0.05 0.01 -0.0523069 -0.00483775 -0.000146575 9.42843
0.055 0.01 -0.0452915 -0.003837 -0.000125282 8.26264
0.06 0.01 -0.0395439 -0.00309823 -0.000108205 7.28804
0.065 0.01 -0.0347856 -0.00253587 -9.43e-05 6.4683
0.07 0.01 -0.0308133 -0.00209727 -8.28463e-05 5.775
0.075 0.01 -0.027475 -0.00174855 -7.33272e-05 5.18592
0.08 0.01 -0.0246546 -0.00146704 -6.53606e-05 4.6835
0.085 0.01 -0.0222618 -0.00123696 -5.86566e-05 4.25371
0.09 0.01 -0.020225 -0.00104702 -5.29907e-05 3.8852
0.095 0.01 -0.018487 -0.000888869 -4.81862e-05 3.56871
0.1 0.01 -0.0170013 -0.000756235 -4.41019e-05 3.29662
0.105 0.01 -0.0157299 -0.000644288 -4.06237e-05 3.06258
0.11 0.01 -0.0146414 -0.00054926 -3.76588e-05 2.86131
0.115 0.01 -0.0137097 -0.000468171 -3.51309e-05 2.68837
0.12 0.01 -0.0129132 -0.000398636 -3.2977e-05 2.53999
0.125 0.01 -0.0122337 -0.000338733 -3.11444e-05 2.41302
0.13 0.01 -0.0116557 -0.000286899 -2.95895e-05 2.30475
0.135 0.01 -0.0111663 -0.000241853 -2.82753e-05 2.21286
0.14 0.01 -0.0107543 -0.000202543 -2.71708e-05 2.1354
0.145 0.01 -0.0104105 -0.000168095 -2.62497e-05 2.07066
0.15 0.01 -0.0101267 -0.000137786 -2.54897e-05 2.01719
0.155 0.01 -0.00989609 -0.000111012 -2.48717e-05 1.97373
0.16 0.01 -0.00971268 -8.72654e-05 -2.43794e-05 1.93918
0.165 0.01 -0.00957136 -6.61222e-05 -2.39989e-05 1.91262
0.17 0.01 -0.00946769 -4.72242e-05 -2.37181e-05 1.8932
0.175 0.01 -0.00939782 -3.02691e-05 -2.35265e-05 1.88021
0.18 0.01 -0.00935839 -1.50012e-05 -2.34153e-05 1.87303
0.185 0.01 -0.00934647 -1.20398e-06 -2.33764e-05 1.8711
0.19 0.01 -0.00935949 1.13065e-05 -2.34031e-05 1.87392
0.195 0.01 -0.00939516 2.26864e-05 -2.34894e-05 1.88108
0.2 0.01 -0.0094515 3.30683e-05 -2.36299e-05 1.89219
0.205 0.01 -0.0095267 4.2565e-05 -2.382e-05 1.90689
0.21 0.01 -0.00961918 5.12723e-05 -2.40555e-05 1.9249
0.215 0.01 -0.00972751 5.92715e-05 -2.43327e-05 1.94592
0.22 0.01 -0.0098504 6.66317e-05 -2.46482e-05 1.96972
0.225 0.01 -0.00998666 7.34112e-05 -2.49989e-05 1.99605
0.23 0.01 -0.0101352 7.96593e-05 -2.53822e-05 2.02471
0.235 0.01 -0.0102951 8.54176e-05 -2.57955e-05 2.0555
0.24 0.01 -0.0104654 9.07211e-05 -2.62364e-05 2.08825
0.245 0.01 -0.0106452 9.55988e-05 -2.67027e-05 2.12278
0.25 0.01 -0.0108337 0.000100075 -2.71923e-05 2.15894
0.255 0.01 -0.0110301 0.00010417 -2.77034e-05 2.19656
0.26 0.01 -0.0112338 0.0001079 -2.8234e-05 2.23552
0.265 0.01 -0.011444 0.000111278 -2.87824e-05 2.27567
0.27 0.01 -0.0116601 0.000114315 -2.93468e-05 2.31687
0.275 0.01 -0.0118813 0.000117019 -2.99256e-05 2.35899
0.28 0.01 -0.0121071 0.000119398 -3.05171e-05 2.40192
0.285 0.01 -0.0123368 0.000121457 -3.11196e-05 2.44552
0.29 0.01 -0.0125697 0.000123198 -3.17317e-05 2.48967
0.295 0.01 -0.0128053 0.000124625 -3.23517e-05 2.53425
0.3 0.01 -0.013043 0.00012574 -3.2978e-05 2.57914
0.305 0.01 -0.0132821 0.000126545 -3.36092e-05 2.62423
0.31 0.01 -0.013522 0.000127039 -3.42436e-05 2.66939
0.315 0.01 -0.0137622 0.000127224 -3.48797e-05 2.71452
0.32 0.01 -0.0140021 0.0001271 -3.55159e-05 2.7595
0.325 0.01 -0.014241 0.000126667 -3.61508e-05 2.80421
0.33 0.01 -0.0144783 0.000125925 -3.67827e-05 2.84854
0.335 0.01 -0.0147136 0.000124876 -3.74102e-05 2.89238
0.34 0.01 -0.0149461 0.00012352 -3.80316e-05 2.93562
0.345 0.01 -0.0151754 0.000121857 -3.86456e-05 2.97815
0.35 0.01 -0.0154008 0.000119891 -3.92504e-05 3.01985
0.355 0.01 -0.0156217 0.000117621 -3.98447e-05 3.06063
0.36 0.01 -0.0158376 0.000115052 -4.04268e-05 3.10038
0.365 0.01 -0.016048 0.000112186 -4.09954e-05 3.13898
0.37 0.01 -0.0162523 0.000109027 -4.15489e-05 3.17635
0.375 0.01 -0.0164499 0.000105579 -4.20859e-05 3.21238
0.38 0.01 -0.0166403 0.000101848 -4.26049e-05 3.24697
0.385 0.01 -0.016823 9.78384e-05 -4.31046e-05 3.28003
0.39 0.01 -0.0169975 9.35581e-05 -4.35836e-05 3.31146
0.395 0.01 -0.0171634 8.9014e-05 -4.40405e-05 3.34118
0.4 0.01 -0.01732 8.42142e-05 -4.4474e-05 3.36911
0.405 0.01 -0.017467 7.91676e-05 -4.48829e-05 3.39515
0.41 0.01 -0.017604 7.38839e-05 -4.5266e-05 3.41924
0.415 0.01 -0.0177305 6.83735e-05 -4.56221e-05 3.4413
0.42 0.01 -0.017846 6.26477e-05 -4.59501e-05 3.46126
0.425 0.01 -0.0179504 5.67184e-05 -4.62489e-05 3.47905
0.43 0.01 -0.0180431 5.05982e-05 -4.65176e-05 3.49461
0.435 0.01 -0.0181239 4.43005e-05 -4.67553e-05 3.50789
0.44 0.01 -0.0181925 3.78394e-05 -4.6961e-05 3.51884
0.445 0.01 -0.0182487 3.12294e-05 -4.7134e-05 3.52742
0.45 0.01 -0.018292 2.44859e-05 -4.72737e-05 3.53357
0.455 0.01 -0.0183225 1.76245e-05 -4.73793e-05 3.53728
0.46 0.01 -0.0183398 1.06617e-05 -4.74503e-05 3.5385
0.465 0.01 -0.0183438 3.614e-06 -4.74863e-05 3.53722
0.47 0.01 -0.0183345 -3.50137e-06 -4.74869e-05 3.53342
0.475 0.01 -0.0183116 -1.0667e-05 -4.74517e-05 3.52709
0.48 0.01 -0.0182753 -1.78652e-05 -4.73806e-05 3.51823
0.485 0.01 -0.0182253 -2.50781e-05 -4.72735e-05 3.50683
0.49 0.01 -0.0181619 -3.22876e-05 -4.71303e-05 3.4929
0.495 0.01 -0.0180849 -3.94756e-05 -4.69511e-05 3.47646
0.5 0.01 -0.0179945 -4.66241e-05 -4.6736e-05 3.45752
0.505 0.01 -0.0178908 -5.37149e-05 -4.64853e-05 3.43612
0.51 0.01 -0.017774 -6.07303e-05 -4.61993e-05 3.41227
0.515 0.01 -0.0176441 -6.76526e-05 -4.58784e-05 3.38603
0.52 0.01 -0.0175015 -7.44643e-05 -4.55232e-05 3.35742
0.525 0.01 -0.0173464 -8.11486e-05 -4.51342e-05 3.3265
0.53 0.01 -0.0171789 -8.76888e-05 -4.47122e-05 3.29332
0.535 0.01 -0.0169995 -9.40689e-05 -4.42578e-05 3.25794
0.54 0.01 -0.0168085 -0.000100273 -4.37719e-05 3.22043
0.545 0.01 -0.0166061 -0.000106287 -4.32555e-05 3.18084
0.55 0.01 -0.0163929 -0.000112097 -4.27095e-05 3.13926
0.555 0.01 -0.0161691 -0.000117688 -4.2135e-05 3.09575
0.56 0.01 -0.0159352 -0.000123049 -4.15331e-05 3.05041
0.565 0.01 -0.0156917 -0.000128167 -4.09049e-05 3.00331
0.57 0.01 -0.015439 -0.000133033 -4.02518e-05 2.95454
0.575 0.01 -0.0151777 -0.000137635 -3.95751e-05 2.90419
0.58 0.01 -0.0149082 -0.000141965 -3.88759e-05 2.85236
0.585 0.01 -0.0146309 -0.000146016 -3.81558e-05 2.79914
0.59 0.01 -0.0143466 -0.00014978 -3.74162e-05 2.74464
0.595 0.01 -0.0140557 -0.000153253 -3.66584e-05 2.68894
0.6 0.01 -0.0137587 -0.000156428 -3.5884e-05 2.63215
0.605 0.01 -0.0134562 -0.000159303 -3.50945e-05 2.57437
0.61 0.01 -0.0131487 -0.000161874 -3.42914e-05 2.51572
0.615 0.01 -0.0128369 -0.000164142 -3.34761e-05 2.45628
0.62 0.01 -0.0125213 -0.000166105 -3.26503e-05 2.39616
0.625 0.01 -0.0122025 -0.000167764 -3.18154e-05 2.33547
0.63 0.01 -0.0118809 -0.000169121 -3.0973e-05 2.2743
0.635 0.01 -0.0115573 -0.000170178 -3.01246e-05 2.21277
0.64 0.01 -0.011232 -0.00017094 -2.92716e-05 2.15097
0.645 0.01 -0.0109057 -0.000171411 -2.84155e-05 2.089
0.65 0.01 -0.0105789 -0.000171597 -2.75578e-05 2.02695
0.655 0.01 -0.0102521 -0.000171504 -2.66998e-05 1.96492
0.66 0.01 -0.00992586 -0.000171138 -2.5843e-05 1.90301
0.665 0.01 -0.0096006 -0.000170509 -2.49887e-05 1.84131
0.67 0.01 -0.00927683 -0.000169625 -2.41382e-05 1.77989
0.675 0.01 -0.00895502 -0.000168495 -2.32927e-05 1.71885
0.68 0.01 -0.0086356 -0.000167128 -2.24534e-05 1.65827
0.685 0.01 -0.00831901 -0.000165536 -2.16216e-05 1.59822
0.69 0.01 -0.00800565 -0.000163728 -2.07983e-05 1.53879
0.695 0.01 -0.00769591 -0.000161716 -1.99845e-05 1.48003
0.7 0.01 -0.00739016 -0.000159512 -1.91813e-05 1.42202
0.705 0.01 -0.00708874 -0.000157125 -1.83896e-05 1.36483
0.71 0.01 -0.00679197 -0.00015457 -1.76102e-05 1.3085
0.715 0.01 -0.00650017 -0.000151857 -1.68441e-05 1.25311
0.72 0.01 -0.0062136 -0.000148997 -1.60918e-05 1.19869
0.725 0.01 -0.00593254 -0.000146004 -1.53542e-05 1.1453
0.73 0.01 -0.00565722 -0.000142889 -1.46319e-05 1.09298
0.735 0.01 -0.00538786 -0.000139664 -1.39254e-05 1.04177
0.74 0.01 -0.00512465 -0.000136339 -1.32354e-05 0.991707
0.745 0.01 -0.00486776 -0.000132927 -1.25621e-05 0.942827
0.75 0.01 -0.00461736 -0.000129438 -1.19062e-05 0.895157
0.755 0.01 -0.00437358 -0.000125884 -1.12678e-05 0.848723
0.76 0.01 -0.00413652 -0.000122274 -1.06474e-05 0.803545
0.765 0.01 -0.0039063 -0.000118618 -1.00452e-05 0.759644
0.77 0.01 -0.00368298 -0.000114926 -9.4613e-06 0.717033
0.775 0.01 -0.00346664 -0.000111208 -8.89596e-06 0.675726
0.78 0.01 -0.00325731 -0.000107472 -8.34927e-06 0.635731
0.785 0.01 -0.00305502 -0.000103726 -7.82128e-06 0.597055
0.79 0.01 -0.00285978 -9.99782e-05 -7.31204e-06 0.559701
0.795 0.01 -0.00267161 -9.62358e-05 -6.82153e-06 0.523671
0.8 0.01 -0.00249048 -9.25057e-05 -6.34971e-06 0.488962
0.805 0.01 -0.00231637 -8.87943e-05 -5.89649e-06 0.455571
0.81 0.01 -0.00214925 -8.51074e-05 -5.46178e-06 0.423493
0.815 0.01 -0.00198906 -8.14504e-05 -5.04543e-06 0.392719
0.82 0.01 -0.00183575 -7.78283e-05 -4.64728e-06 0.363241
0.825 0.01 -0.00168926 -7.42453e-05 -4.26715e-06 0.335046
0.83 0.01 -0.00154951 -7.07055e-05 -3.90483e-06 0.308123
0.835 0.01 -0.00141642 -6.72125e-05 -3.56009e-06 0.282456
0.84 0.01 -0.00128991 -6.37692e-05 -3.2327e-06 0.258032
0.845 0.01 -0.00116988 -6.03784e-05 -2.92239e-06 0.234833
0.85 0.01 -0.00105623 -5.70423e-05 -2.6289e-06 0.212843
0.855 0.01 -0.000948875 -5.37628e-05 -2.35196e-06 0.192044
0.86 0.01 -0.000847695 -5.05414e-05 -2.09126e-06 0.172415
0.865 0.01 -0.000752589 -4.73793e-05 -1.84653e-06 0.15394
0.87 0.01 -0.000663446 -4.42774e-05 -1.61745e-06 0.136596
0.875 0.01 -0.000580155 -4.12362e-05 -1.40374e-06 0.120365
0.88 0.01 -0.000502604 -3.82562e-05 -1.20508e-06 0.105225
0.885 0.01 -0.000430679 -3.53374e-05 -1.02116e-06 0.0911561
0.89 0.01 -0.000364266 -3.24798e-05 -8.51685e-07 0.0781367
0.895 0.01 -0.000303251 -2.96833e-05 -6.96346e-07 0.0661454
0.9 0.01 -0.000247518 -2.69476e-05 -5.54837e-07 0.0551609
0.905 0.01 -0.000196953 -2.42726e-05 -4.26854e-07 0.0451613
0.91 0.01 -0.000151439 -2.16583e-05 -3.12095e-07 0.0361245
0.915 0.01 -0.000110861 -1.91047e-05 -2.10257e-07 0.0280279
0.92 0.01 -7.50984e-05 -1.66124e-05 -1.21035e-07 0.0208485
0.925 0.01 -4.40314e-05 -1.41826e-05 -4.41202e-08 0.0145622
0.93 0.01 -1.75338e-05 -1.18173e-05 2.08029e-08 0.0091439
0.935 0.01 4.52626e-06 -9.5197e-06 7.40632e-08 0.00456677
0.94 0.01 2.22902e-05 -7.2949e-06 1.1601e-07 0.000801765
0.945 0.01 3.59127e-05 -5.15026e-06 1.47021e-07 -0.00218322
0.95 0.01 4.5567e-05 -3.0966e-06 1.6752e-07 -0.00442446
0.955 0.01 5.14523e-05 -1.14953e-06 1.77993e-07 -0.00596382
0.96 0.01 5.38038e-05 6.68577e-07 1.7902e-07 -0.00685069
0.965 0.01 5.29065e-05 2.32554e-06 1.71312e-07 -0.00714445
0.97 0.01 4.91136e-05 3.77495e-06 1.55768e-07 -0.00691775
0.975 0.01 4.28722e-05 4.94945e-06 1.33564e-07 -0.00626044
0.98 0.01 3.47578e-05 5.75087e-06 1.06275e-07 -0.00528407
0.985 0.01 2.5518e-05 6.03746e-06 7.60563e-08 -0.0041253
0.99 0.01 1.6123e-05 5.61509e-06 4.59005e-08 -0.00294365
0.995 0.01 7.80029e-06 4.269e-06 1.99053e-08 -0.00189973
1 0.01 1.9863e-06 1.99053e-06 3.21036e-09 -0.00107708
0 0.015 0 0 -0.00158904 0
0.005 0.015 0 0 0 -256.005
0.01 0.015 -0.152733 0.18465 -0.00179994 -79.311
0.015 0.015 -0.205913 -0.0239982 -0.0018465 -16.656
0.02 0.015 -0.204101 -0.0575616 -0.00155996 2.35758
0.025 0.015 -0.184094 -0.0522316 -0.00127088 8.01482
0.03 0.015 -0.160807 -0.0413203 -0.00103764 9.36783
0.035 0.015 -0.13922 -0.0318952 -0.00085768 9.25783
0.04 0.015 -0.120572 -0.0247875 -0.000718691 8.66024
0.045 0.015 -0.104843 -0.0195621 -0.000609805 7.9317
0.05 0.015 -0.0916553 -0.015689 -0.000523069 7.20585
0.055 0.015 -0.0805867 -0.012763 -0.000452915 6.53118
0.06 0.015 -0.0712635 -0.0105059 -0.000395439 5.92245
0.065 0.015 -0.0633775 -0.00873058 -0.000347856 5.38095
0.07 0.015 -0.05668 -0.00731057 -0.000308132 4.90272
0.075 0.015 -0.0509716 -0.00615863 -0.000274749 4.48205
0.08 0.015 -0.0460915 -0.00521315 -0.000246546 4.11285
0.085 0.015 -0.0419094 -0.00442953 -0.000222617 3.78936
0.09 0.015 -0.0383186 -0.0037747 -0.00020225 3.50625
0.095 0.015 -0.0352313 -0.00322365 -0.00018487 3.25878
0.1 0.015 -0.0325747 -0.00275709 -0.000170013 3.04276
0.105 0.015 -0.0302881 -0.0023599 -0.000157298 2.85446
0.11 0.015 -0.0283205 -0.00202009 -0.000146413 2.69066
0.115 0.015 -0.0266292 -0.00172805 -0.000137097 2.54851
0.12 0.015 -0.0251778 -0.00147597 -0.000129132 2.42551
0.125 0.015 -0.0239355 -0.00125749 -0.000122336 2.3195
0.13 0.015 -0.0228762 -0.00106738 -0.000116556 2.22857
0.135 0.015 -0.0219774 -0.000901314 -0.000111662 2.15106
0.14 0.015 -0.02122 -0.000755703 -0.000107543 2.0855
0.145 0.015 -0.0205874 -0.00062755 -0.000104104 2.03062
0.15 0.015 -0.0200655 -0.000514346 -0.000101267 1.98531
0.155 0.015 -0.0196419 -0.000413982 -9.89604e-05 1.94856
0.16 0.015 -0.0193061 -0.000324681 -9.71263e-05 1.91952
0.165 0.015 -0.0190487 -0.000244942 -9.57131e-05 1.89742
0.17 0.015 -0.0188618 -0.000173492 -9.46765e-05 1.88159
0.175 0.015 -0.0187383 -0.000109252 -9.39778e-05 1.87142
0.18 0.015 -0.0186721 -5.13043e-05 -9.35835e-05 1.86639
0.185 0.015 -0.0186577 1.13337e-06 -9.34644e-05 1.86603
0.19 0.015 -0.0186903 4.87268e-05 -9.35945e-05 1.8699
0.195 0.015 -0.0187658 9.20439e-05 -9.39513e-05 1.87764
0.2 0.015 -0.0188803 0.000131569 -9.45147e-05 1.88891
0.205 0.015 -0.0190305 0.000167717 -9.52668e-05 1.90339
0.21 0.015 -0.0192134 0.000200839 -9.61916e-05 1.92081
0.215 0.015 -0.0194262 0.000231236 -9.72749e-05 1.94092
0.22 0.015 -0.0196665 0.000259164 -9.85038e-05 1.96349
0.225 0.015 -0.0199319 0.000284841 -9.98664e-05 1.9883
0.23 0.015 -0.0202205 0.000308451 -0.000101352 2.01516
0.235 0.015 -0.0205304 0.000330149 -0.000102951 2.04387
0.24 0.015 -0.0208596 0.000350069 -0.000104653 2.07428
0.245 0.015 -0.0212066 0.000368319 -0.000106451 2.10622
0.25 0.015 -0.0215698 0.000384993 -0.000108337 2.13954
0.255 0.015 -0.0219476 0.000400167 -0.000110301 2.17409
0.26 0.015 -0.0223387 0.000413906 -0.000112338 2.20973
0.265 0.015 -0.0227416 0.000426261 -0.000114441 2.24633
0.27 0.015 -0.0231551 0.000437276 -0.000116601 2.28375
0.275 0.015 -0.0235778 0.000446985 -0.000118813 2.32189
0.28 0.015 -0.0240084 0.000455415 -0.000121071 2.3606
0.285 0.015 -0.0244458 0.00046259 -0.000123368 2.39979
0.29 0.015 -0.0248888 0.000468525 -0.000125697 2.43931
0.295 0.015 -0.025336 0.000473235 -0.000128053 2.47908
0.3 0.015 -0.0257864 0.00047673 -0.00013043 2.51896
0.305 0.015 -0.0262387 0.000479018 -0.000132821 2.55886
0.31 0.015 -0.0266918 0.000480107 -0.000135221 2.59866
0.315 0.015 -0.0271446 0.000480001 -0.000137623 2.63825
0.32 0.015 -0.0275959 0.000478705 -0.000140021 2.67754
0.325 0.015 -0.0280445 0.000476224 -0.00014241 2.71641
0.33 0.015 -0.0284893 0.000472564 -0.000144784 2.75477
0.335 0.015 -0.0289293 0.00046773 -0.000147136 2.79251
0.34 0.015 -0.0293632 0.000461729 -0.000149462 2.82954
0.345 0.015 -0.02979 0.000454569 -0.000151754 2.86575
0.35 0.015 -0.0302087 0.000446259 -0.000154008 2.90105
0.355 0.015 -0.0306181 0.000436811 -0.000156218 2.93536
0.36 0.015 -0.0310171 0.000426239 -0.000158377 2.96857
0.365 0.015 -0.0314048 0.000414558 -0.000160481 3.0006
0.37 0.015 -0.0317801 0.000401785 -0.000162524 3.03136
0.375 0.015 -0.032142 0.000387941 -0.0001645 3.06077
0.38 0.015 -0.0324895 0.00037305 -0.000166404 3.08875
0.385 0.015 -0.0328217 0.000357135 -0.000168231 3.11522
0.39 0.015 -0.0331376 0.000340226 -0.000169977 3.14011
0.395 0.015 -0.0334364 0.000322353 -0.000171635 3.16334
0.4 0.015 -0.0337173 0.000303551 -0.000173201 3.18484
0.405 0.015 -0.0339793 0.000283854 -0.000174671 3.20457
0.41 0.015 -0.0342217 0.000263303 -0.000176041 3.22244
0.415 0.015 -0.0344437 0.000241939 -0.000177306 3.23842
0.42 0.015 -0.0346448 0.000219807 -0.000178462 3.25244
0.425 0.015 -0.0348241 0.000196952 -0.000179505 3.26446
0.43 0.015 -0.0349811 0.000173426 -0.000180433 3.27443
0.435 0.015 -0.0351152 0.000149279 -0.000181241 3.28232
0.44 0.015 -0.035226 0.000124566 -0.000181927 3.2881
0.445 0.015 -0.0353129 9.9342e-05 -0.000182488 3.29173
0.45 0.015 -0.0353756 7.36656e-05 -0.000182922 3.29319
0.455 0.015 -0.0354138 4.75962e-05 -0.000183226 3.29247
0.46 0.015 -0.035427 2.11954e-05 -0.000183399 3.28954
0.465 0.015 -0.0354152 -5.47447e-06 -0.00018344 3.2844
0.47 0.015 -0.035378 -3.23494e-05 -0.000183346 3.27704
0.475 0.015 -0.0353155 -5.93647e-05 -0.000183118 3.26746
0.48 0.015 -0.0352276 -8.64547e-05 -0.000182754 3.25568
0.485 0.015 -0.0351142 -0.000113554 -0.000182255 3.24169
0.49 0.015 -0.0349754 -0.000140595 -0.00018162 3.22552
0.495 0.015 -0.0348114 -0.000167512 -0.000180851 3.20719
0.5 0.015 -0.0346224 -0.00019424 -0.000179947 3.18672
0.505 0.015 -0.0344086 -0.000220713 -0.00017891 3.16414
0.51 0.015 -0.0341703 -0.000246865 -0.000177742 3.13948
0.515 0.015 -0.0339078 -0.000272633 -0.000176443 3.11279
0.52 0.015 -0.0336217 -0.000297954 -0.000175017 3.08411
0.525 0.015 -0.0333123 -0.000322768 -0.000173465 3.05348
0.53 0.015 -0.0329803 -0.000347014 -0.000171791 3.02096
0.535 0.015 -0.0326261 -0.000370636 -0.000169997 2.9866
0.54 0.015 -0.0322505 -0.000393578 -0.000168086 2.95046
0.545 0.015 -0.031854 -0.000415788 -0.000166063 2.91261
0.55 0.015 -0.0314375 -0.000437215 -0.00016393 2.8731
0.555 0.015 -0.0310017 -0.000457811 -0.000161693 2.83201
0.56 0.015 -0.0305474 -0.000477534 -0.000159354 2.78941
0.565 0.015 -0.0300755 -0.000496341 -0.000156919 2.74537
0.57 0.015 -0.0295868 -0.000514195 -0.000154392 2.69998
0.575 0.015 -0.0290822 -0.000531062 -0.000151779 2.6533
0.58 0.015 -0.0285627 -0.00054691 -0.000149083 2.60542
0.585 0.015 -0.0280293 -0.000561714 -0.000146311 2.55642
0.59 0.015 -0.0274829 -0.000575448 -0.000143468 2.50639
0.595 0.015 -0.0269246 -0.000588095 -0.000140558 2.4554
0.6 0.015 -0.0263553 -0.000599639 -0.000137588 2.40355
0.605 0.015 -0.0257761 -0.000610067 -0.000134563 2.35092
0.61 0.015 -0.0251879 -0.000619373 -0.000131489 2.2976
0.615 0.015 -0.024592 -0.000627552 -0.000128371 2.24367
0.62 0.015 -0.0239892 -0.000634604 -0.000125215 2.18922
0.625 0.015 -0.0233807 -0.000640533 -0.000122026 2.13433
0.63 0.015 -0.0227675 -0.000645346 -0.000118811 2.0791
0.635 0.015 -0.0221505 -0.000649055 -0.000115574 2.02359
0.64 0.015 -0.0215308 -0.000651673 -0.000112321 1.96791
0.645 0.015 -0.0209095 -0.000653218 -0.000109058 1.91212
0.65 0.015 -0.0202874 -0.000653712 -0.00010579 1.85632
0.655 0.015 -0.0196655 -0.000653177 -0.000102522 1.80057
0.66 0.015 -0.0190448 -0.000651641 -9.92596e-05 1.74495
0.665 0.015 -0.0184261 -0.000649132 -9.6007e-05 1.68954
0.67 0.015 -0.0178104 -0.000645683 -9.27693e-05 1.63442
0.675 0.015 -0.0171984 -0.000641327 -8.95511e-05 1.57964
0.68 0.015 -0.0165911 -0.0006361 -8.63569e-05 1.52528
0.685 0.015 -0.0159892 -0.000630039 -8.3191e-05 1.4714
0.69 0.015 -0.0153934 -0.000623184 -8.00573e-05 1.41806
0.695 0.015 -0.0148045 -0.000615575 -7.69599e-05 1.36533
0.7 0.015 -0.014223 -0.000607252 -7.39023e-05 1.31326
0.705 0.015 -0.0136498 -0.000598259 -7.0888e-05 1.26189
0.71 0.015 -0.0130853 -0.000588638 -6.79204e-05 1.21129
0.715 0.015 -0.0125302 -0.000578432 -6.50023e-05 1.1615
0.72 0.015 -0.0119849 -0.000567685 -6.21366e-05 1.11256
0.725 0.015 -0.0114499 -0.000556439 -5.93259e-05 1.06451
0.73 0.015 -0.0109257 -0.000544738 -5.65727e-05 1.01739
0.735 0.015 -0.0104127 -0.000532625 -5.3879e-05 0.971231
0.74 0.015 -0.00991117 -0.000520141 -5.12469e-05 0.926072
0.745 0.015 -0.00942155 -0.000507327 -4.8678e-05 0.881938
0.75 0.015 -0.00894409 -0.000494225 -4.6174e-05 0.838853
0.755 0.015 -0.00847903 -0.000480872 -4.37361e-05 0.796841
0.76 0.015 -0.00802661 -0.000467308 -4.13655e-05 0.755921
0.765 0.015 -0.00758699 -0.000453568 -3.90633e-05 0.716109
0.77 0.015 -0.00716035 -0.000439689 -3.68301e-05 0.677422
0.775 0.015 -0.00674679 -0.000425703 -3.46666e-05 0.639869
0.78 0.015 -0.00634641 -0.000411643 -3.25732e-05 0.603461
0.785 0.015 -0.00595927 -0.000397539 -3.05503e-05 0.568204
0.79 0.015 -0.00558539 -0.000383422 -2.8598e-05 0.534104
0.795 0.015 -0.0052248 -0.000369316 -2.67162e-05 0.501161
0.8 0.015 -0.00487747 -0.000355249 -2.49049e-05 0.469378
0.805 0.015 -0.00454336 -0.000341243 -2.31638e-05 0.438752
0.81 0.015 -0.00422242 -0.00032732 -2.14926e-05 0.409281
0.815 0.015 -0.00391456 -0.000313501 -1.98907e-05 0.380959
0.82 0.015 -0.00361969 -0.000299804 -1.83576e-05 0.35378
0.825 0.015 -0.00333769 -0.000286245 -1.68926e-05 0.327736