Title=" Lid Driven Flow"
VARIABLES="X","Y","U","V","psi","xi"
ZONE T= "BOX", I= 201, J=201, F=POINT
0 0 0 0 0.0034439 0
0.005 0 0 0 0 0
0.01 0 0 0 0 0
0.015 0 0 0 0 161.891
0.02 0 0 0 0 176.121
0.025 0 0 0 0 155.598
0.03 0 0 0 0 133.203
0.035 0 0 0 0 115.679
0.04 0 0 0 0 102.821
0.045 0 0 0 0 93.2856
0.05 0 0 0 0 85.9629
0.055 0 0 0 0 80.1196
0.06 0 0 0 0 75.2973
0.065 0 0 0 0 71.2071
0.07 0 0 0 0 67.661
0.075 0 0 0 0 64.5325
0.08 0 0 0 0 61.7331
0.085 0 0 0 0 59.1993
0.09 0 0 0 0 56.8841
0.095 0 0 0 0 54.7522
0.1 0 0 0 0 52.7767
0.105 0 0 0 0 50.9364
0.11 0 0 0 0 49.2145
0.115 0 0 0 0 47.5978
0.12 0 0 0 0 46.0752
0.125 0 0 0 0 44.6376
0.13 0 0 0 0 43.2774
0.135 0 0 0 0 41.9881
0.14 0 0 0 0 40.7641
0.145 0 0 0 0 39.6004
0.15 0 0 0 0 38.4927
0.155 0 0 0 0 37.4371
0.16 0 0 0 0 36.4302
0.165 0 0 0 0 35.4686
0.17 0 0 0 0 34.5494
0.175 0 0 0 0 33.6699
0.18 0 0 0 0 32.8276
0.185 0 0 0 0 32.0201
0.19 0 0 0 0 31.2453
0.195 0 0 0 0 30.501
0.2 0 0 0 0 29.7853
0.205 0 0 0 0 29.0964
0.21 0 0 0 0 28.4325
0.215 0 0 0 0 27.792
0.22 0 0 0 0 27.1734
0.225 0 0 0 0 26.5752
0.23 0 0 0 0 25.996
0.235 0 0 0 0 25.4345
0.24 0 0 0 0 24.8896
0.245 0 0 0 0 24.3599
0.25 0 0 0 0 23.8445
0.255 0 0 0 0 23.3423
0.26 0 0 0 0 22.8524
0.265 0 0 0 0 22.3737
0.27 0 0 0 0 21.9056
0.275 0 0 0 0 21.4471
0.28 0 0 0 0 20.9975
0.285 0 0 0 0 20.5562
0.29 0 0 0 0 20.1223
0.295 0 0 0 0 19.6955
0.3 0 0 0 0 19.275
0.305 0 0 0 0 18.8604
0.31 0 0 0 0 18.4512
0.315 0 0 0 0 18.0469
0.32 0 0 0 0 17.6471
0.325 0 0 0 0 17.2516
0.33 0 0 0 0 16.8598
0.335 0 0 0 0 16.4716
0.34 0 0 0 0 16.0867
0.345 0 0 0 0 15.7048
0.35 0 0 0 0 15.3258
0.355 0 0 0 0 14.9494
0.36 0 0 0 0 14.5756
0.365 0 0 0 0 14.2042
0.37 0 0 0 0 13.8351
0.375 0 0 0 0 13.4683
0.38 0 0 0 0 13.1037
0.385 0 0 0 0 12.7413
0.39 0 0 0 0 12.3812
0.395 0 0 0 0 12.0233
0.4 0 0 0 0 11.6677
0.405 0 0 0 0 11.3145
0.41 0 0 0 0 10.9638
0.415 0 0 0 0 10.6156
0.42 0 0 0 0 10.2702
0.425 0 0 0 0 9.92752
0.43 0 0 0 0 9.58786
0.435 0 0 0 0 9.25133
0.44 0 0 0 0 8.91813
0.445 0 0 0 0 8.58842
0.45 0 0 0 0 8.26239
0.455 0 0 0 0 7.94025
0.46 0 0 0 0 7.6222
0.465 0 0 0 0 7.30844
0.47 0 0 0 0 6.99918
0.475 0 0 0 0 6.69463
0.48 0 0 0 0 6.395
0.485 0 0 0 0 6.1005
0.49 0 0 0 0 5.81133
0.495 0 0 0 0 5.52769
0.5 0 0 0 0 5.24977
0.505 0 0 0 0 4.97775
0.51 0 0 0 0 4.71182
0.515 0 0 0 0 4.45213
0.52 0 0 0 0 4.19884
0.525 0 0 0 0 3.95209
0.53 0 0 0 0 3.71202
0.535 0 0 0 0 3.47873
0.54 0 0 0 0 3.25234
0.545 0 0 0 0 3.03291
0.55 0 0 0 0 2.82053
0.555 0 0 0 0 2.61525
0.56 0 0 0 0 2.41711
0.565 0 0 0 0 2.22612
0.57 0 0 0 0 2.04229
0.575 0 0 0 0 1.86561
0.58 0 0 0 0 1.69606
0.585 0 0 0 0 1.53358
0.59 0 0 0 0 1.37812
0.595 0 0 0 0 1.22961
0.6 0 0 0 0 1.08796
0.605 0 0 0 0 0.953075
0.61 0 0 0 0 0.824835
0.615 0 0 0 0 0.703119
0.62 0 0 0 0 0.587791
0.625 0 0 0 0 0.478706
0.63 0 0 0 0 0.375712
0.635 0 0 0 0 0.278647
0.64 0 0 0 0 0.187342
0.645 0 0 0 0 0.101623
0.65 0 0 0 0 0.0213117
0.655 0 0 0 0 -0.0537761
0.66 0 0 0 0 -0.123826
0.665 0 0 0 0 -0.189029
0.67 0 0 0 0 -0.249573
0.675 0 0 0 0 -0.305652
0.68 0 0 0 0 -0.357458
0.685 0 0 0 0 -0.405185
0.69 0 0 0 0 -0.449024
0.695 0 0 0 0 -0.489169
0.7 0 0 0 0 -0.525811
0.705 0 0 0 0 -0.55914
0.71 0 0 0 0 -0.589347
0.715 0 0 0 0 -0.616619
0.72 0 0 0 0 -0.641142
0.725 0 0 0 0 -0.663101
0.73 0 0 0 0 -0.682676
0.735 0 0 0 0 -0.700044
0.74 0 0 0 0 -0.715379
0.745 0 0 0 0 -0.728847
0.75 0 0 0 0 -0.74061
0.755 0 0 0 0 -0.750821
0.76 0 0 0 0 -0.759622
0.765 0 0 0 0 -0.767147
0.77 0 0 0 0 -0.773517
0.775 0 0 0 0 -0.778839
0.78 0 0 0 0 -0.783206
0.785 0 0 0 0 -0.786693
0.79 0 0 0 0 -0.78936
0.795 0 0 0 0 -0.791248
0.8 0 0 0 0 -0.792381
0.805 0 0 0 0 -0.792763
0.81 0 0 0 0 -0.792379
0.815 0 0 0 0 -0.791199
0.82 0 0 0 0 -0.789174
0.825 0 0 0 0 -0.786241
0.83 0 0 0 0 -0.78232
0.835 0 0 0 0 -0.777322
0.84 0 0 0 0 -0.771147
0.845 0 0 0 0 -0.763689
0.85 0 0 0 0 -0.754838
0.855 0 0 0 0 -0.744481
0.86 0 0 0 0 -0.73251
0.865 0 0 0 0 -0.718821
0.87 0 0 0 0 -0.70332
0.875 0 0 0 0 -0.685927
0.88 0 0 0 0 -0.666578
0.885 0 0 0 0 -0.645227
0.89 0 0 0 0 -0.621856
0.895 0 0 0 0 -0.596469
0.9 0 0 0 0 -0.569104
0.905 0 0 0 0 -0.539828
0.91 0 0 0 0 -0.508746
0.915 0 0 0 0 -0.475998
0.92 0 0 0 0 -0.441763
0.925 0 0 0 0 -0.406261
0.93 0 0 0 0 -0.369753
0.935 0 0 0 0 -0.33254
0.94 0 0 0 0 -0.294968
0.945 0 0 0 0 -0.257422
0.95 0 0 0 0 -0.220331
0.955 0 0 0 0 -0.184166
0.96 0 0 0 0 -0.149436
0.965 0 0 0 0 -0.116693
0.97 0 0 0 0 -0.0865282
0.975 0 0 0 0 -0.0595665
0.98 0 0 0 0 -0.0364602
0.985 0 0 0 0 -0.0178675
0.99 0 0 0 0 -0.00440357
0.995 0 0 0 0 0.00347533
1 0 0 0 0 0.00574567
0 0.005 0 0 0 0
0.005 0.005 0 0 0 0
0.01 0.005 0 0 0 73.7283
0.015 0.005 0 0 0 62.0748
0.02 0.005 0 0 0 45.7358
0.025 0.005 0 0 0 33.9746
0.03 0.005 0 0 0 26.0761
0.035 0.005 0 0 0 20.6397
0.04 0.005 0 0 0 16.7254
0.045 0.005 0 0 0 13.7837
0.05 0.005 0 0 0 11.4969
0.055 0.005 0 0 0 9.67464
0.06 0.005 0 0 0 8.19742
0.065 0.005 0 0 0 6.98577
0.07 0.005 0 0 0 5.98413
0.075 0.005 0 0 0 5.15185
0.08 0.005 0 0 0 4.45808
0.085 0.005 0 0 0 3.87874
0.09 0.005 0 0 0 3.39459
0.095 0.005 0 0 0 2.99007
0.1 0.005 0 0 0 2.65238
0.105 0.005 0 0 0 2.371
0.11 0.005 0 0 0 2.13714
0.115 0.005 0 0 0 1.94352
0.12 0.005 0 0 0 1.78404
0.125 0.005 0 0 0 1.65359
0.13 0.005 0 0 0 1.54791
0.135 0.005 0 0 0 1.46342
0.14 0.005 0 0 0 1.39714
0.145 0.005 0 0 0 1.34656
0.15 0.005 0 0 0 1.30958
0.155 0.005 0 0 0 1.28445
0.16 0.005 0 0 0 1.2697
0.165 0.005 0 0 0 1.26412
0.17 0.005 0 0 0 1.26667
0.175 0.005 0 0 0 1.27651
0.18 0.005 0 0 0 1.29292
0.185 0.005 0 0 0 1.31531
0.19 0.005 0 0 0 1.34317
0.195 0.005 0 0 0 1.3761
0.2 0.005 0 0 0 1.41373
0.205 0.005 0 0 0 1.45578
0.21 0.005 0 0 0 1.50199
0.215 0.005 0 0 0 1.55215
0.22 0.005 0 0 0 1.60607
0.225 0.005 0 0 0 1.66359
0.23 0.005 0 0 0 1.72457
0.235 0.005 0 0 0 1.78888
0.24 0.005 0 0 0 1.85639
0.245 0.005 0 0 0 1.92701
0.25 0.005 0 0 0 2.00062
0.255 0.005 0 0 0 2.07713
0.26 0.005 0 0 0 2.15643
0.265 0.005 0 0 0 2.23842
0.27 0.005 0 0 0 2.32302
0.275 0.005 0 0 0 2.41011
0.28 0.005 0 0 0 2.49959
0.285 0.005 0 0 0 2.59136
0.29 0.005 0 0 0 2.6853
0.295 0.005 0 0 0 2.7813
0.3 0.005 0 0 0 2.87924
0.305 0.005 0 0 0 2.97899
0.31 0.005 0 0 0 3.08042
0.315 0.005 0 0 0 3.18339
0.32 0.005 0 0 0 3.28777
0.325 0.005 0 0 0 3.39341
0.33 0.005 0 0 0 3.50015
0.335 0.005 0 0 0 3.60783
0.34 0.005 0 0 0 3.71629
0.345 0.005 0 0 0 3.82535
0.35 0.005 0 0 0 3.93485
0.355 0.005 0 0 0 4.04461
0.36 0.005 0 0 0 4.15443
0.365 0.005 0 0 0 4.26413
0.37 0.005 0 0 0 4.3735
0.375 0.005 0 0 0 4.48237
0.38 0.005 0 0 0 4.59051
0.385 0.005 0 0 0 4.69774
0.39 0.005 0 0 0 4.80383
0.395 0.005 0 0 0 4.90858
0.4 0.005 0 0 0 5.01177
0.405 0.005 0 0 0 5.1132
0.41 0.005 0 0 0 5.21264
0.415 0.005 0 0 0 5.30987
0.42 0.005 0 0 0 5.4047
0.425 0.005 0 0 0 5.49689
0.43 0.005 0 0 0 5.58623
0.435 0.005 0 0 0 5.67251
0.44 0.005 0 0 0 5.75552
0.445 0.005 0 0 0 5.83505
0.45 0.005 0 0 0 5.91089
0.455 0.005 0 0 0 5.98284
0.46 0.005 0 0 0 6.05071
0.465 0.005 0 0 0 6.1143
0.47 0.005 0 0 0 6.17343
0.475 0.005 0 0 0 6.22792
0.48 0.005 0 0 0 6.27759
0.485 0.005 0 0 0 6.32227
0.49 0.005 0 0 0 6.36181
0.495 0.005 0 0 0 6.39607
0.5 0.005 0 0 0 6.42489
0.505 0.005 0 0 0 6.44815
0.51 0.005 0 0 0 6.46573
0.515 0.005 0 0 0 6.47752
0.52 0.005 0 0 0 6.48342
0.525 0.005 0 0 0 6.48335
0.53 0.005 0 0 0 6.47724
0.535 0.005 0 0 0 6.46503
0.54 0.005 0 0 0 6.44667
0.545 0.005 0 0 0 6.42213
0.55 0.005 0 0 0 6.3914
0.555 0.005 0 0 0 6.35447
0.56 0.005 0 0 0 6.31136
0.565 0.005 0 0 0 6.2621
0.57 0.005 0 0 0 6.20674
0.575 0.005 0 0 0 6.14533
0.58 0.005 0 0 0 6.07796
0.585 0.005 0 0 0 6.00473
0.59 0.005 0 0 0 5.92573
0.595 0.005 0 0 0 5.84111
0.6 0.005 0 0 0 5.751
0.605 0.005 0 0 0 5.65557
0.61 0.005 0 0 0 5.555
0.615 0.005 0 0 0 5.44947
0.62 0.005 0 0 0 5.33921
0.625 0.005 0 0 0 5.22442
0.63 0.005 0 0 0 5.10535
0.635 0.005 0 0 0 4.98225
0.64 0.005 0 0 0 4.85538
0.645 0.005 0 0 0 4.72503
0.65 0.005 0 0 0 4.59147
0.655 0.005 0 0 0 4.45502
0.66 0.005 0 0 0 4.31596
0.665 0.005 0 0 0 4.17463
0.67 0.005 0 0 0 4.03135
0.675 0.005 0 0 0 3.88644
0.68 0.005 0 0 0 3.74023
0.685 0.005 0 0 0 3.59308
0.69 0.005 0 0 0 3.4453
0.695 0.005 0 0 0 3.29725
0.7 0.005 0 0 0 3.14926
0.705 0.005 0 0 0 3.00167
0.71 0.005 0 0 0 2.8548
0.715 0.005 0 0 0 2.709
0.72 0.005 0 0 0 2.56457
0.725 0.005 0 0 0 2.42183
0.73 0.005 0 0 0 2.28108
0.735 0.005 0 0 0 2.14262
0.74 0.005 0 0 0 2.00673
0.745 0.005 0 0 0 1.87366
0.75 0.005 0 0 0 1.74368
0.755 0.005 0 0 0 1.61702
0.76 0.005 0 0 0 1.49391
0.765 0.005 0 0 0 1.37454
0.77 0.005 0 0 0 1.25911
0.775 0.005 0 0 0 1.14778
0.78 0.005 0 0 0 1.0407
0.785 0.005 0 0 0 0.938004
0.79 0.005 0 0 0 0.839804
0.795 0.005 0 0 0 0.74619
0.8 0.005 0 0 0 0.657235
0.805 0.005 0 0 0 0.572992
0.81 0.005 0 0 0 0.493495
0.815 0.005 0 0 0 0.418759
0.82 0.005 0 0 0 0.348784
0.825 0.005 0 0 0 0.283549
0.83 0.005 0 0 0 0.223018
0.835 0.005 0 0 0 0.167138
0.84 0.005 0 0 0 0.115844
0.845 0.005 0 0 0 0.0690531
0.85 0.005 0 0 0 0.0266724
0.855 0.005 0 0 0 -0.0114043
0.86 0.005 0 0 0 -0.0452938
0.865 0.005 0 0 0 -0.0751227
0.87 0.005 0 0 0 -0.101026
0.875 0.005 0 0 0 -0.123147
0.88 0.005 0 0 0 -0.141635
0.885 0.005 0 0 0 -0.156645
0.89 0.005 0 0 0 -0.168337
0.895 0.005 0 0 0 -0.176876
0.9 0.005 0 0 0 -0.182429
0.905 0.005 0 0 0 -0.185168
0.91 0.005 0 0 0 -0.185267
0.915 0.005 0 0 0 -0.182905
0.92 0.005 0 0 0 -0.178262
0.925 0.005 0 0 0 -0.171525
0.93 0.005 0 0 0 -0.162887
0.935 0.005 0 0 0 -0.152549
0.94 0.005 0 0 0 -0.140722
0.945 0.005 0 0 0 -0.127632
0.95 0.005 0 0 0 -0.113525
0.955 0.005 0 0 0 -0.0986705
0.96 0.005 0 0 0 -0.0833697
0.965 0.005 0 0 0 -0.0679658
0.97 0.005 0 0 0 -0.0528538
0.975 0.005 0 0 0 -0.0384935
0.98 0.005 0 0 0 -0.0254233
0.985 0.005 0 0 0 -0.0142679
0.99 0.005 0 0 0 -0.00572526
0.995 0.005 0 0 0 -0.000478278
1 0.005 0 0 0 0.00111779
0 0.01 0 0 0.00111779 0
0.005 0.01 0 0 0 -326.272
0.01 0.01 -0.180049 0.0775936 -0.000921604 -44.3997
0.015 0.01 -0.184878 -0.0349906 -0.000775936 9.53366
0.02 0.01 -0.156415 -0.0351253 -0.000571697 19.1192
0.025 0.01 -0.127586 -0.0245747 -0.000424682 18.9913
0.03 0.01 -0.10417 -0.0166686 -0.000325951 16.8231
0.035 0.01 -0.0859168 -0.0116884 -0.000257996 14.4881
0.04 0.01 -0.071635 -0.00856993 -0.000209067 12.415
0.045 0.01 -0.0602857 -0.00653563 -0.000172297 10.6579
0.05 0.01 -0.0511178 -0.00513637 -0.000143711 9.18255
0.055 0.01 -0.0436099 -0.00412432 -0.000120933 7.94184
0.06 0.01 -0.0373975 -0.00336108 -0.000102468 6.89437
0.065 0.01 -0.032219 -0.00276661 -8.73222e-05 6.00682
0.07 0.01 -0.0278807 -0.0022924 -7.48016e-05 5.25282
0.075 0.01 -0.0242348 -0.00190756 -6.43981e-05 4.61133
0.08 0.01 -0.0211654 -0.00159139 -5.5726e-05 4.06528
0.085 0.01 -0.0185793 -0.00132936 -4.84842e-05 3.6006
0.09 0.01 -0.0164009 -0.00111084 -4.24324e-05 3.20558
0.095 0.01 -0.0145675 -0.000927759 -3.73758e-05 2.87034
0.1 0.01 -0.0130269 -0.000773834 -3.31548e-05 2.58651
0.105 0.01 -0.0117354 -0.000644049 -2.96375e-05 2.34693
0.11 0.01 -0.0106564 -0.000534341 -2.67143e-05 2.14552
0.115 0.01 -0.00975875 -0.00044138 -2.4294e-05 1.97704
0.12 0.01 -0.0090164 -0.000362415 -2.23005e-05 1.83704
0.125 0.01 -0.00840722 -0.00029516 -2.06699e-05 1.72168
0.13 0.01 -0.00791254 -0.000237706 -1.93489e-05 1.6277
0.135 0.01 -0.00751656 -0.000188459 -1.82928e-05 1.5523
0.14 0.01 -0.00720596 -0.000146082 -1.74643e-05 1.49309
0.145 0.01 -0.0069695 -0.000109455 -1.6832e-05 1.44804
0.15 0.01 -0.00679767 -7.76382e-05 -1.63697e-05 1.41542
0.155 0.01 -0.00668249 -4.98437e-05 -1.60556e-05 1.39374
0.16 0.01 -0.00661719 -2.54109e-05 -1.58712e-05 1.38176
0.165 0.01 -0.00659611 -3.78647e-06 -1.58014e-05 1.3784
0.17 0.01 -0.00661448 1.54926e-05 -1.58334e-05 1.38276
0.175 0.01 -0.00666825 3.28133e-05 -1.59564e-05 1.39408
0.18 0.01 -0.00675405 4.84982e-05 -1.61615e-05 1.41169
0.185 0.01 -0.00686903 6.28157e-05 -1.64413e-05 1.43504
0.19 0.01 -0.00701077 7.59886e-05 -1.67896e-05 1.46367
0.195 0.01 -0.00717725 8.82013e-05 -1.72012e-05 1.49716
0.2 0.01 -0.00736673 9.96054e-05 -1.76717e-05 1.53516
0.205 0.01 -0.00757773 0.000110325 -1.81973e-05 1.57739
0.21 0.01 -0.00780901 0.000120463 -1.87749e-05 1.62359
0.215 0.01 -0.00805947 0.0001301 -1.94019e-05 1.67352
0.22 0.01 -0.00832815 0.000139303 -2.00759e-05 1.72699
0.225 0.01 -0.00861421 0.000148125 -2.07949e-05 1.78382
0.23 0.01 -0.00891692 0.000156606 -2.15571e-05 1.84386
0.235 0.01 -0.00923557 0.000164778 -2.2361e-05 1.90696
0.24 0.01 -0.00956955 0.000172665 -2.32049e-05 1.97298
0.245 0.01 -0.00991827 0.000180284 -2.40876e-05 2.0418
0.25 0.01 -0.0102812 0.000187646 -2.50077e-05 2.11329
0.255 0.01 -0.0106577 0.000194758 -2.59641e-05 2.18734
0.26 0.01 -0.0110473 0.000201623 -2.69553e-05 2.26384
0.265 0.01 -0.0114495 0.00020824 -2.79803e-05 2.34266
0.27 0.01 -0.0118637 0.000214606 -2.90377e-05 2.4237
0.275 0.01 -0.0122894 0.000220716 -3.01263e-05 2.50684
0.28 0.01 -0.012726 0.000226563 -3.12449e-05 2.59196
0.285 0.01 -0.013173 0.000232136 -3.2392e-05 2.67894
0.29 0.01 -0.0136298 0.000237426 -3.35662e-05 2.76766
0.295 0.01 -0.0140958 0.000242421 -3.47662e-05 2.858
0.3 0.01 -0.0145704 0.000247109 -3.59905e-05 2.94983
0.305 0.01 -0.0150529 0.000251476 -3.72373e-05 3.043
0.31 0.01 -0.0155426 0.00025551 -3.85052e-05 3.1374
0.315 0.01 -0.0160389 0.000259195 -3.97924e-05 3.23286
0.32 0.01 -0.016541 0.000262519 -4.10972e-05 3.32925
0.325 0.01 -0.0170482 0.000265466 -4.24176e-05 3.42643
0.33 0.01 -0.0175597 0.000268022 -4.37518e-05 3.52422
0.335 0.01 -0.0180748 0.000270175 -4.50978e-05 3.62249
0.34 0.01 -0.0185926 0.000271908 -4.64536e-05 3.72106
0.345 0.01 -0.0191123 0.00027321 -4.78169e-05 3.81977
0.35 0.01 -0.019633 0.000274066 -4.91857e-05 3.91846
0.355 0.01 -0.0201538 0.000274466 -5.05576e-05 4.01694
0.36 0.01 -0.0206739 0.000274395 -5.19304e-05 4.11506
0.365 0.01 -0.0211923 0.000273845 -5.33016e-05 4.21262
0.37 0.01 -0.021708 0.000272803 -5.46688e-05 4.30945
0.375 0.01 -0.0222202 0.000271261 -5.60296e-05 4.40537
0.38 0.01 -0.0227279 0.000269209 -5.73815e-05 4.50019
0.385 0.01 -0.0232301 0.000266641 -5.87217e-05 4.59373
0.39 0.01 -0.0237258 0.000263548 -6.00479e-05 4.68581
0.395 0.01 -0.024214 0.000259927 -6.13572e-05 4.77623
0.4 0.01 -0.0246937 0.000255771 -6.26472e-05 4.86482
0.405 0.01 -0.0251639 0.000251078 -6.3915e-05 4.95139
0.41 0.01 -0.0256237 0.000245846 -6.5158e-05 5.03574
0.415 0.01 -0.026072 0.000240074 -6.63735e-05 5.11771
0.42 0.01 -0.0265078 0.000233761 -6.75587e-05 5.1971
0.425 0.01 -0.0269301 0.000226911 -6.87111e-05 5.27374
0.43 0.01 -0.027338 0.000219525 -6.98279e-05 5.34745
0.435 0.01 -0.0277305 0.000211609 -7.09064e-05 5.41805
0.44 0.01 -0.0281066 0.000203168 -7.1944e-05 5.48538
0.445 0.01 -0.0284654 0.000194209 -7.29381e-05 5.54926
0.45 0.01 -0.0288059 0.000184742 -7.38861e-05 5.60954
0.455 0.01 -0.0291273 0.000174777 -7.47856e-05 5.66605
0.46 0.01 -0.0294287 0.000164325 -7.56339e-05 5.71865
0.465 0.01 -0.0297093 0.000153399 -7.64288e-05 5.76718
0.47 0.01 -0.0299681 0.000142014 -7.7168e-05 5.8115
0.475 0.01 -0.0302045 0.000130188 -7.7849e-05 5.85148
0.48 0.01 -0.0304177 0.000117937 -7.84699e-05 5.887
0.485 0.01 -0.0306069 0.00010528 -7.90284e-05 5.91793
0.49 0.01 -0.0307716 9.22398e-05 -7.95227e-05 5.94416
0.495 0.01 -0.0309109 7.88376e-05 -7.99509e-05 5.96558
0.5 0.01 -0.0310245 6.50975e-05 -8.03111e-05 5.98211
0.505 0.01 -0.0311116 5.1045e-05 -8.06019e-05 5.99365
0.51 0.01 -0.0311719 3.67072e-05 -8.08216e-05 6.00013
0.515 0.01 -0.0312049 2.21123e-05 -8.0969e-05 6.00149
0.52 0.01 -0.0312102 7.29012e-06 -8.10428e-05 5.99765
0.525 0.01 -0.0311874 -7.72811e-06 -8.1042e-05 5.98859
0.53 0.01 -0.0311364 -2.29099e-05 -8.09656e-05 5.97426
0.535 0.01 -0.0310569 -3.82215e-05 -8.08129e-05 5.95464
0.54 0.01 -0.0309487 -5.3628e-05 -8.05834e-05 5.92972
0.545 0.01 -0.0308118 -6.90932e-05 -8.02767e-05 5.89949
0.55 0.01 -0.0306462 -8.458e-05 -7.98926e-05 5.86397
0.555 0.01 -0.0304519 -0.00010005 -7.9431e-05 5.82319
0.56 0.01 -0.030229 -0.000115465 -7.88921e-05 5.77717
0.565 0.01 -0.0299778 -0.000130785 -7.82764e-05 5.72596
0.57 0.01 -0.0296985 -0.000145969 -7.75843e-05 5.66963
0.575 0.01 -0.0293914 -0.000160976 -7.68167e-05 5.60824
0.58 0.01 -0.029057 -0.000175767 -7.59746e-05 5.54189
0.585 0.01 -0.0286957 -0.000190298 -7.50591e-05 5.47067
0.59 0.01 -0.0283081 -0.000204529 -7.40717e-05 5.3947
0.595 0.01 -0.0278949 -0.000218418 -7.30139e-05 5.31409
0.6 0.01 -0.0274566 -0.000231925 -7.18876e-05 5.22899
0.605 0.01 -0.0269942 -0.000245008 -7.06947e-05 5.13953
0.61 0.01 -0.0265084 -0.000257628 -6.94375e-05 5.04589
0.615 0.01 -0.0260002 -0.000269747 -6.81185e-05 4.94823
0.62 0.01 -0.0254705 -0.000281325 -6.67401e-05 4.84674
0.625 0.01 -0.0249204 -0.000292327 -6.53053e-05 4.74161
0.63 0.01 -0.024351 -0.000302717 -6.38169e-05 4.63304
0.635 0.01 -0.0237635 -0.000312462 -6.22782e-05 4.52125
0.64 0.01 -0.023159 -0.00032153 -6.06924e-05 4.40646
0.645 0.01 -0.0225389 -0.000329893 -5.90629e-05 4.28891
0.65 0.01 -0.0219044 -0.000337521 -5.73935e-05 4.16883
0.655 0.01 -0.021257 -0.000344392 -5.56878e-05 4.04647
0.66 0.01 -0.020598 -0.000350483 -5.39496e-05 3.92209
0.665 0.01 -0.0199289 -0.000355774 -5.2183e-05 3.79594
0.67 0.01 -0.0192511 -0.00036025 -5.03919e-05 3.66829
0.675 0.01 -0.0185662 -0.000363898 -4.85805e-05 3.53941
0.68 0.01 -0.0178757 -0.000366707 -4.6753e-05 3.40958
0.685 0.01 -0.0171811 -0.000368671 -4.49135e-05 3.27905
0.69 0.01 -0.0164839 -0.000369787 -4.30663e-05 3.14812
0.695 0.01 -0.0157857 -0.000370056 -4.12157e-05 3.01705
0.7 0.01 -0.015088 -0.000369482 -3.93658e-05 2.88612
0.705 0.01 -0.0143923 -0.000368072 -3.75209e-05 2.7556
0.71 0.01 -0.0137001 -0.000365839 -3.56851e-05 2.62576
0.715 0.01 -0.0130129 -0.000362796 -3.38625e-05 2.49687
0.72 0.01 -0.0123323 -0.000358962 -3.20572e-05 2.36918
0.725 0.01 -0.0116595 -0.00035436 -3.02729e-05 2.24295
0.73 0.01 -0.0109959 -0.000349013 -2.85136e-05 2.11842
0.735 0.01 -0.010343 -0.000342951 -2.67828e-05 1.99584
0.74 0.01 -0.00970185 -0.000336205 -2.50841e-05 1.87543
0.745 0.01 -0.00907384 -0.00032881 -2.34208e-05 1.75742
0.75 0.01 -0.00846005 -0.000320801 -2.1796e-05 1.642
0.755 0.01 -0.0078616 -0.000312219 -2.02128e-05 1.52939
0.76 0.01 -0.00727948 -0.000303105 -1.86738e-05 1.41976
0.765 0.01 -0.00671465 -0.000293502 -1.71817e-05 1.31329
0.77 0.01 -0.00616797 -0.000283455 -1.57388e-05 1.21013
0.775 0.01 -0.00564021 -0.00027301 -1.43472e-05 1.11044
0.78 0.01 -0.00513209 -0.000262215 -1.30087e-05 1.01433
0.785 0.01 -0.00464421 -0.000251118 -1.17251e-05 0.921929
0.79 0.01 -0.00417711 -0.000239768 -1.04976e-05 0.833334
0.795 0.01 -0.00373123 -0.000228211 -9.32738e-06 0.74863
0.8 0.01 -0.00330692 -0.000216498 -8.21544e-06 0.667887
0.805 0.01 -0.00290445 -0.000204676 -7.1624e-06 0.59116
0.81 0.01 -0.002524 -0.00019279 -6.16868e-06 0.518488
0.815 0.01 -0.00216569 -0.000180888 -5.23449e-06 0.449896
0.82 0.01 -0.00182952 -0.000169013 -4.3598e-06 0.385393
0.825 0.01 -0.00151543 -0.000157208 -3.54436e-06 0.324974
0.83 0.01 -0.00122329 -0.000145513 -2.78771e-06 0.268623
0.835 0.01 -0.000952879 -0.000133967 -2.08922e-06 0.216306
0.84 0.01 -0.00070393 -0.000122606 -1.44804e-06 0.167981
0.845 0.01 -0.000476091 -0.000111463 -8.63157e-07 0.123589
0.85 0.01 -0.000268958 -0.000100571 -3.33398e-07 0.083063
0.855 0.01 -8.2066e-05 -8.99571e-05 1.42561e-07 0.0463248
0.86 0.01 8.50985e-05 -7.96473e-05 5.6618e-07 0.0132852
0.865 0.01 0.000233098 -6.96646e-05 9.39041e-07 -0.0161535
0.87 0.01 0.000362539 -6.00296e-05 1.26283e-06 -0.0420977
0.875 0.01 0.000474064 -5.076e-05 1.53934e-06 -0.0646615
0.88 0.01 0.00056835 -4.18713e-05 1.77044e-06 -0.083966
0.885 0.01 0.000646107 -3.33769e-05 1.95807e-06 -0.100139
0.89 0.01 0.000708067 -2.52879e-05 2.10422e-06 -0.113313
0.895 0.01 0.000754991 -1.76143e-05 2.21095e-06 -0.123628
0.9 0.01 0.000787656 -1.03647e-05 2.28037e-06 -0.131226
0.905 0.01 0.000806862 -3.54727e-06 2.31461e-06 -0.136257
0.91 0.01 0.000813429 2.82989e-06 2.31585e-06 -0.138873
0.915 0.01 0.000808196 8.75769e-06 2.28631e-06 -0.139234
0.92 0.01 0.000792027 1.42253e-05 2.22828e-06 -0.137502
0.925 0.01 0.00076581 1.9219e-05 2.14407e-06 -0.133848
0.93 0.01 0.000730468 2.37208e-05 2.03609e-06 -0.12845
0.935 0.01 0.000686967 2.7707e-05 1.90686e-06 -0.121494
0.94 0.01 0.000636325 3.11459e-05 1.75902e-06 -0.113177
0.945 0.01 0.000579627 3.39959e-05 1.59541e-06 -0.10371
0.95 0.01 0.000518047 3.62025e-05 1.41907e-06 -0.0933195
0.955 0.01 0.000452865 3.76946e-05 1.23338e-06 -0.0822524
0.96 0.01 0.000385499 3.8381e-05 1.04212e-06 -0.0707783
0.965 0.01 0.000317534 3.81451e-05 8.49575e-07 -0.0591936
0.97 0.01 0.000250756 3.68406e-05 6.60673e-07 -0.0478244
0.975 0.01 0.000187185 3.42882e-05 4.8117e-07 -0.0370256
0.98 0.01 0.000129097 3.0282e-05 3.17792e-07 -0.027173
0.985 0.01 7.90011e-05 2.46226e-05 1.7835e-07 -0.0186388
0.99 0.01 3.95174e-05 1.72371e-05 7.15657e-08 -0.0117296
0.995 0.01 1.30029e-05 8.55382e-06 5.97844e-09 -0.00654835
1 0.01 5.98179e-07 5.97844e-07 -1.39725e-08 -0.00271401
0 0.015 0 0 -0.000478543 0
0.005 0.015 0 0 0 -255.961
0.01 0.015 -0.152865 0.184878 -0.00180049 -79.2521
0.015 0.015 -0.206267 -0.0236335 -0.00184878 -16.6378
0.02 0.015 -0.204627 -0.0572919 -0.00156415 2.30817
0.025 0.015 -0.184612 -0.052245 -0.00127586 7.91521
0.03 0.015 -0.161078 -0.0416696 -0.0010417 9.23638
0.035 0.015 -0.139017 -0.0325352 -0.000859168 9.10181
0.04 0.015 -0.11972 -0.0256311 -0.00071635 8.47849
0.045 0.015 -0.103229 -0.0205172 -0.000602857 7.71939
0.05 0.015 -0.0892279 -0.0166757 -0.000511178 6.95782
0.055 0.015 -0.0773468 -0.0137203 -0.000436099 6.2436
0.06 0.015 -0.0672514 -0.011391 -0.000373975 5.59351
0.065 0.015 -0.0586605 -0.00951681 -0.00032219 5.01089
0.07 0.015 -0.0513424 -0.00798416 -0.000278807 4.49352
0.075 0.015 -0.0451062 -0.00671532 -0.000242348 4.03704
0.08 0.015 -0.0397929 -0.00565547 -0.000211654 3.63632
0.085 0.015 -0.0352696 -0.00476445 -0.000185793 3.28615
0.09 0.015 -0.031424 -0.00401187 -0.000164009 2.98147
0.095 0.015 -0.0281608 -0.00337405 -0.000145675 2.71757
0.1 0.015 -0.0253988 -0.00283205 -0.000130269 2.49006
0.105 0.015 -0.0230683 -0.00237049 -0.000117354 2.29496
0.11 0.015 -0.0211101 -0.00197665 -0.000106564 2.12865
0.115 0.015 -0.0194731 -0.00163996 -9.75874e-05 1.98788
0.12 0.015 -0.0181139 -0.00135152 -9.0164e-05 1.86975
0.125 0.015 -0.0169951 -0.00110386 -8.40722e-05 1.77167
0.13 0.015 -0.0160849 -0.00089066 -7.91253e-05 1.69135
0.135 0.015 -0.0153561 -0.000706568 -7.51655e-05 1.62677
0.14 0.015 -0.0147854 -0.000547055 -7.20596e-05 1.57617
0.145 0.015 -0.0143529 -0.000408286 -6.96949e-05 1.53798
0.15 0.015 -0.0140419 -0.00028701 -6.79767e-05 1.51086
0.155 0.015 -0.013838 -0.000180478 -6.68248e-05 1.49362
0.16 0.015 -0.013729 -8.63665e-05 -6.61719e-05 1.48523
0.165 0.015 -0.0137045 -2.71207e-06 -6.59611e-05 1.4848
0.17 0.015 -0.0137558 7.21399e-05 -6.61447e-05 1.49157
0.175 0.015 -0.0138753 0.000139582 -6.66825e-05 1.50485
0.18 0.015 -0.0140568 0.000200784 -6.75405e-05 1.52406
0.185 0.015 -0.0142948 0.000256724 -6.86903e-05 1.54871
0.19 0.015 -0.0145848 0.000308221 -7.01077e-05 1.57835
0.195 0.015 -0.0149228 0.000355955 -7.17725e-05 1.61261
0.2 0.015 -0.0153054 0.000400489 -7.36672e-05 1.65114
0.205 0.015 -0.0157299 0.000442288 -7.57773e-05 1.69366
0.21 0.015 -0.0161936 0.000481735 -7.80901e-05 1.73991
0.215 0.015 -0.0166945 0.000519139 -8.05946e-05 1.78966
0.22 0.015 -0.0172305 0.000554751 -8.32815e-05 1.84269
0.225 0.015 -0.0177999 0.000588772 -8.61421e-05 1.89883
0.23 0.015 -0.0184012 0.00062136 -8.91692e-05 1.95791
0.235 0.015 -0.019033 0.000652637 -9.23557e-05 2.01975
0.24 0.015 -0.0196939 0.000682695 -9.56955e-05 2.08422
0.245 0.015 -0.0203828 0.000711603 -9.91826e-05 2.15117
0.25 0.015 -0.0210983 0.000739405 -0.000102812 2.22046
0.255 0.015 -0.0218393 0.000766129 -0.000106577 2.29197
0.26 0.015 -0.0226048 0.00079179 -0.000110473 2.36556
0.265 0.015 -0.0233936 0.000816387 -0.000114495 2.4411
0.27 0.015 -0.0242045 0.000839911 -0.000118637 2.51848
0.275 0.015 -0.0250364 0.000862343 -0.000122894 2.59755
0.28 0.015 -0.0258881 0.000883658 -0.00012726 2.67819
0.285 0.015 -0.0267585 0.000903824 -0.00013173 2.76027
0.29 0.015 -0.0276464 0.000922803 -0.000136298 2.84366
0.295 0.015 -0.0285504 0.000940556 -0.000140958 2.92822
0.3 0.015 -0.0294693 0.000957039 -0.000145704 3.01381
0.305 0.015 -0.0304018 0.000972206 -0.000150529 3.10031
0.31 0.015 -0.0313465 0.000986009 -0.000155426 3.18755
0.315 0.015 -0.032302 0.000998399 -0.000160389 3.2754
0.32 0.015 -0.0332668 0.00100933 -0.00016541 3.36372
0.325 0.015 -0.0342394 0.00101875 -0.000170482 3.45234
0.33 0.015 -0.0352184 0.00102661 -0.000175598 3.54112
0.335 0.015 -0.0362021 0.00103286 -0.000180748 3.62991
0.34 0.015 -0.037189 0.00103746 -0.000185926 3.71854
0.345 0.015 -0.0381773 0.00104036 -0.000191123 3.80686
0.35 0.015 -0.0391654 0.00104151 -0.00019633 3.89471
0.355 0.015 -0.0401516 0.00104089 -0.000201538 3.98192
0.36 0.015 -0.0411342 0.00103845 -0.000206739 4.06834
0.365 0.015 -0.0421113 0.00103415 -0.000211923 4.1538
0.37 0.015 -0.0430812 0.00102797 -0.00021708 4.23813
0.375 0.015 -0.044042 0.00101988 -0.000222202 4.32118
0.38 0.015 -0.044992 0.00100984 -0.000227279 4.40278
0.385 0.015 -0.0459293 0.000997849 -0.000232301 4.48277
0.39 0.015 -0.0468519 0.000983878 -0.000237258 4.56099
0.395 0.015 -0.0477582 0.000967918 -0.00024214 4.63727
0.4 0.015 -0.0486461 0.00094996 -0.000246937 4.71146
0.405 0.015 -0.0495139 0.00093 -0.000251639 4.78341
0.41 0.015 -0.0503597 0.000908038 -0.000256237 4.85295
0.415 0.015 -0.0511816 0.00088408 -0.00026072 4.91995
0.42 0.015 -0.0519779 0.000858136 -0.000265078 4.98424
0.425 0.015 -0.0527467 0.000830221 -0.000269301 5.04569
0.43 0.015 -0.0534863 0.000800354 -0.00027338 5.10416
0.435 0.015 -0.0541949 0.000768561 -0.000277305 5.15951
0.44 0.015 -0.0548708 0.000734871 -0.000281066 5.21161
0.445 0.015 -0.0555122 0.00069932 -0.000284654 5.26033
0.45 0.015 -0.0561177 0.000661947 -0.000288059 5.30556
0.455 0.015 -0.0566855 0.000622799 -0.000291274 5.34717
0.46 0.015 -0.0572142 0.000581926 -0.000294288 5.38506
0.465 0.015 -0.0577023 0.000539384 -0.000297093 5.41912
0.47 0.015 -0.0581484 0.000495235 -0.000299682 5.44927
0.475 0.015 -0.058551 0.000449544 -0.000302045 5.47539
0.48 0.015 -0.058909 0.000402385 -0.000304177 5.49743
0.485 0.015 -0.059221 0.000353833 -0.00030607 5.51528
0.49 0.015 -0.0594861 0.000303971 -0.000307716 5.5289
0.495 0.015 -0.0597031 0.000252887 -0.000309109 5.53822
0.5 0.015 -0.059871 0.000200672 -0.000310245 5.54317
0.505 0.015 -0.0599891 0.000147424 -0.000311116 5.54373
0.51 0.015 -0.0600564 9.32453e-05 -0.000311719 5.53985
0.515 0.015 -0.0600724 3.82426e-05 -0.000312049 5.5315
0.52 0.015 -0.0600365 -1.74726e-05 -0.000312102 5.51867
0.525 0.015 -0.0599481 -7.37844e-05 -0.000311874 5.50134
0.53 0.015 -0.059807 -0.000130573 -0.000311364 5.47951
0.535 0.015 -0.0596128 -0.000187713 -0.000310569 5.45319
0.54 0.015 -0.0593655 -0.000245078 -0.000309487 5.42239
0.545 0.015 -0.0590649 -0.000302536 -0.000308118 5.38715
0.55 0.015 -0.0587113 -0.000359952 -0.000306462 5.34748
0.555 0.015 -0.0583048 -0.00041719 -0.000304519 5.30345
0.56 0.015 -0.0578458 -0.000474108 -0.00030229 5.2551
0.565 0.015 -0.0573347 -0.000530565 -0.000299778 5.20249
0.57 0.015 -0.0567721 -0.000586417 -0.000296985 5.14569
0.575 0.015 -0.0561588 -0.000641519 -0.000293914 5.08479
0.58 0.015 -0.0554957 -0.000695725 -0.00029057 5.01988
0.585 0.015 -0.0547836 -0.000748889 -0.000286957 4.95105
0.59 0.015 -0.0540237 -0.000800865 -0.000283081 4.87842
0.595 0.015 -0.0532172 -0.000851508 -0.000278949 4.80209
0.6 0.015 -0.0523655 -0.000900676 -0.000274566 4.7222
0.605 0.015 -0.0514701 -0.000948225 -0.000269942 4.63888
0.61 0.015 -0.0505325 -0.000994018 -0.000265084 4.55226
0.615 0.015 -0.0495545 -0.00103792 -0.000260002 4.46251
0.62 0.015 -0.0485379 -0.0010798 -0.000254705 4.36977
0.625 0.015 -0.0474847 -0.00111953 -0.000249204 4.27422
0.63 0.015 -0.0463969 -0.00115698 -0.00024351 4.17601
0.635 0.015 -0.0452766 -0.00119206 -0.000237635 4.07534
0.64 0.015 -0.0441261 -0.00122463 -0.00023159 3.97237
0.645 0.015 -0.0429478 -0.00125461 -0.000225389 3.86731
0.65 0.015 -0.041744 -0.00128191 -0.000219044 3.76035
0.655 0.015 -0.0405172 -0.00130643 -0.00021257 3.65168
0.66 0.015 -0.03927 -0.0013281 -0.00020598 3.54151
0.665 0.015 -0.038005 -0.00134686 -0.000199289 3.43004
0.67 0.015 -0.0367248 -0.00136265 -0.000192512 3.31749
0.675 0.015 -0.0354322 -0.00137543 -0.000185663 3.20406
0.68 0.015 -0.0341299 -0.00138517 -0.000178757 3.08998
0.685 0.015 -0.0328207 -0.00139184 -0.000171811 2.97545
0.69 0.015 -0.0315073 -0.00139543 -0.000164839 2.86069
0.695 0.015 -0.0301925 -0.00139596 -0.000157857 2.74591
0.7 0.015 -0.0288791 -0.00139343 -0.00015088 2.63134
0.705 0.015 -0.0275698 -0.00138787 -0.000143923 2.51717
0.71 0.015 -0.0262673 -0.00137933 -0.000137001 2.40364
0.715 0.015 -0.0249743 -0.00136785 -0.00013013 2.29093
0.72 0.015 -0.0236934 -0.0013535 -0.000123323 2.17926
0.725 0.015 -0.0224271 -0.00133636 -0.000116595 2.06882
0.73 0.015 -0.0211781 -0.00131652 -0.000109959 1.95981
0.735 0.015 -0.0199486 -0.00129407 -0.00010343 1.85242
0.74 0.015 -0.0187409 -0.00126912 -9.70186e-05 1.74683
0.745 0.015 -0.0175574 -0.00124181 -9.07384e-05 1.64322
0.75 0.015 -0.0164 -0.00121224 -8.46006e-05 1.54176
0.755 0.015 -0.0152708 -0.00118058 -7.8616e-05 1.44259
0.76 0.015 -0.0141716 -0.00114695 -7.27949e-05 1.34589
0.765 0.015 -0.0131043 -0.00111152 -6.71465e-05 1.25178
0.77 0.015 -0.0120703 -0.00107444 -6.16797e-05 1.16041
0.775 0.015 -0.0110711 -0.00103588 -5.64022e-05 1.07188
0.78 0.015 -0.010108 -0.000996002 -5.13209e-05 0.986323
0.785 0.015 -0.00918222 -0.000954981 -4.64422e-05 0.90383
0.79 0.015 -0.00829473 -0.000912988 -4.17711e-05 0.824493
0.795 0.015 -0.00744638 -0.000870197 -3.73123e-05 0.748389
0.8 0.015 -0.00663787 -0.000826782 -3.30692e-05 0.675587
0.805 0.015 -0.00586974 -0.000782913 -2.90445e-05 0.606141
0.81 0.015 -0.00514238 -0.00073876 -2.524e-05 0.540095
0.815 0.015 -0.00445603 -0.000694488 -2.16569e-05 0.477481
0.82 0.015 -0.00381079 -0.00065026 -1.82951e-05 0.41832
0.825 0.015 -0.00320659 -0.000606229 -1.51543e-05 0.362621
0.83 0.015 -0.00264324 -0.000562546 -1.22328e-05 0.310382
0.835 0.015 -0.00212043 -0.000519354 -9.52877e-06 0.261589
0.84 0.015 -0.00163768 -0.000476786 -7.03928e-06 0.21622