Title=" Lid Driven Flow"
VARIABLES="X","Y","U","V","psi","xi"
ZONE T= "BOX", I= 201, J=201, F=POINT
0 0 0 0 0.00332042 0
0.005 0 0 0 0 0
0.01 0 0 0 0 0
0.015 0 0 0 0 161.891
0.02 0 0 0 0 176.122
0.025 0 0 0 0 155.6
0.03 0 0 0 0 133.206
0.035 0 0 0 0 115.683
0.04 0 0 0 0 102.827
0.045 0 0 0 0 93.292
0.05 0 0 0 0 85.9693
0.055 0 0 0 0 80.1255
0.06 0 0 0 0 75.302
0.065 0 0 0 0 71.2101
0.07 0 0 0 0 67.6619
0.075 0 0 0 0 64.5309
0.08 0 0 0 0 61.7287
0.085 0 0 0 0 59.1918
0.09 0 0 0 0 56.8733
0.095 0 0 0 0 54.7381
0.1 0 0 0 0 52.7591
0.105 0 0 0 0 50.9154
0.11 0 0 0 0 49.1901
0.115 0 0 0 0 47.5701
0.12 0 0 0 0 46.0442
0.125 0 0 0 0 44.6035
0.13 0 0 0 0 43.2403
0.135 0 0 0 0 41.9482
0.14 0 0 0 0 40.7215
0.145 0 0 0 0 39.5553
0.15 0 0 0 0 38.4453
0.155 0 0 0 0 37.3876
0.16 0 0 0 0 36.3786
0.165 0 0 0 0 35.4151
0.17 0 0 0 0 34.4942
0.175 0 0 0 0 33.6132
0.18 0 0 0 0 32.7695
0.185 0 0 0 0 31.9608
0.19 0 0 0 0 31.1848
0.195 0 0 0 0 30.4394
0.2 0 0 0 0 29.7228
0.205 0 0 0 0 29.0331
0.21 0 0 0 0 28.3684
0.215 0 0 0 0 27.7273
0.22 0 0 0 0 27.1081
0.225 0 0 0 0 26.5093
0.23 0 0 0 0 25.9296
0.235 0 0 0 0 25.3677
0.24 0 0 0 0 24.8224
0.245 0 0 0 0 24.2924
0.25 0 0 0 0 23.7766
0.255 0 0 0 0 23.2741
0.26 0 0 0 0 22.7838
0.265 0 0 0 0 22.3049
0.27 0 0 0 0 21.8364
0.275 0 0 0 0 21.3776
0.28 0 0 0 0 20.9277
0.285 0 0 0 0 20.4861
0.29 0 0 0 0 20.0519
0.295 0 0 0 0 19.6247
0.3 0 0 0 0 19.2038
0.305 0 0 0 0 18.7888
0.31 0 0 0 0 18.3792
0.315 0 0 0 0 17.9745
0.32 0 0 0 0 17.5742
0.325 0 0 0 0 17.1782
0.33 0 0 0 0 16.7859
0.335 0 0 0 0 16.3972
0.34 0 0 0 0 16.0117
0.345 0 0 0 0 15.6292
0.35 0 0 0 0 15.2496
0.355 0 0 0 0 14.8727
0.36 0 0 0 0 14.4982
0.365 0 0 0 0 14.1262
0.37 0 0 0 0 13.7565
0.375 0 0 0 0 13.3891
0.38 0 0 0 0 13.0239
0.385 0 0 0 0 12.6609
0.39 0 0 0 0 12.3002
0.395 0 0 0 0 11.9417
0.4 0 0 0 0 11.5856
0.405 0 0 0 0 11.2319
0.41 0 0 0 0 10.8807
0.415 0 0 0 0 10.5321
0.42 0 0 0 0 10.1863
0.425 0 0 0 0 9.84334
0.43 0 0 0 0 9.50342
0.435 0 0 0 0 9.16671
0.44 0 0 0 0 8.83338
0.445 0 0 0 0 8.50362
0.45 0 0 0 0 8.17763
0.455 0 0 0 0 7.85561
0.46 0 0 0 0 7.53776
0.465 0 0 0 0 7.2243
0.47 0 0 0 0 6.91543
0.475 0 0 0 0 6.61138
0.48 0 0 0 0 6.31234
0.485 0 0 0 0 6.01853
0.49 0 0 0 0 5.73016
0.495 0 0 0 0 5.44742
0.5 0 0 0 0 5.1705
0.505 0 0 0 0 4.89958
0.51 0 0 0 0 4.63485
0.515 0 0 0 0 4.37647
0.52 0 0 0 0 4.12458
0.525 0 0 0 0 3.87933
0.53 0 0 0 0 3.64084
0.535 0 0 0 0 3.40922
0.54 0 0 0 0 3.18458
0.545 0 0 0 0 2.96698
0.55 0 0 0 0 2.7565
0.555 0 0 0 0 2.55319
0.56 0 0 0 0 2.35707
0.565 0 0 0 0 2.16815
0.57 0 0 0 0 1.98645
0.575 0 0 0 0 1.81193
0.58 0 0 0 0 1.64457
0.585 0 0 0 0 1.48432
0.59 0 0 0 0 1.3311
0.595 0 0 0 0 1.18485
0.6 0 0 0 0 1.04546
0.605 0 0 0 0 0.912829
0.61 0 0 0 0 0.786841
0.615 0 0 0 0 0.667363
0.62 0 0 0 0 0.554254
0.625 0 0 0 0 0.447365
0.63 0 0 0 0 0.346535
0.635 0 0 0 0 0.2516
0.64 0 0 0 0 0.162385
0.645 0 0 0 0 0.0787131
0.65 0 0 0 0 0.000400409
0.655 0 0 0 0 -0.0727396
0.66 0 0 0 0 -0.140897
0.665 0 0 0 0 -0.204262
0.67 0 0 0 0 -0.263031
0.675 0 0 0 0 -0.317395
0.68 0 0 0 0 -0.367551
0.685 0 0 0 0 -0.413692
0.69 0 0 0 0 -0.456013
0.695 0 0 0 0 -0.494708
0.7 0 0 0 0 -0.529968
0.705 0 0 0 0 -0.561985
0.71 0 0 0 0 -0.590949
0.715 0 0 0 0 -0.617047
0.72 0 0 0 0 -0.640464
0.725 0 0 0 0 -0.661384
0.73 0 0 0 0 -0.679986
0.735 0 0 0 0 -0.696444
0.74 0 0 0 0 -0.710929
0.745 0 0 0 0 -0.723604
0.75 0 0 0 0 -0.734628
0.755 0 0 0 0 -0.744147
0.76 0 0 0 0 -0.752301
0.765 0 0 0 0 -0.759218
0.77 0 0 0 0 -0.765013
0.775 0 0 0 0 -0.769787
0.78 0 0 0 0 -0.773628
0.785 0 0 0 0 -0.776606
0.79 0 0 0 0 -0.778776
0.795 0 0 0 0 -0.780174
0.8 0 0 0 0 -0.78082
0.805 0 0 0 0 -0.780714
0.81 0 0 0 0 -0.779843
0.815 0 0 0 0 -0.778171
0.82 0 0 0 0 -0.775653
0.825 0 0 0 0 -0.772225
0.83 0 0 0 0 -0.767812
0.835 0 0 0 0 -0.762328
0.84 0 0 0 0 -0.75568
0.845 0 0 0 0 -0.747767
0.85 0 0 0 0 -0.738485
0.855 0 0 0 0 -0.727734
0.86 0 0 0 0 -0.715411
0.865 0 0 0 0 -0.701424
0.87 0 0 0 0 -0.685689
0.875 0 0 0 0 -0.668134
0.88 0 0 0 0 -0.648705
0.885 0 0 0 0 -0.627367
0.89 0 0 0 0 -0.604107
0.895 0 0 0 0 -0.578938
0.9 0 0 0 0 -0.551901
0.905 0 0 0 0 -0.523068
0.91 0 0 0 0 -0.492543
0.915 0 0 0 0 -0.460467
0.92 0 0 0 0 -0.427015
0.925 0 0 0 0 -0.392401
0.93 0 0 0 0 -0.356876
0.935 0 0 0 0 -0.320731
0.94 0 0 0 0 -0.284297
0.945 0 0 0 0 -0.247942
0.95 0 0 0 0 -0.212075
0.955 0 0 0 0 -0.177144
0.96 0 0 0 0 -0.143637
0.965 0 0 0 0 -0.112079
0.97 0 0 0 0 -0.0830319
0.975 0 0 0 0 -0.0570919
0.98 0 0 0 0 -0.034881
0.985 0 0 0 0 -0.017027
0.99 0 0 0 0 -0.004116
0.995 0 0 0 0 0.00341913
1 0 0 0 0 0.00556275
0 0.005 0 0 0 0
0.005 0.005 0 0 0 0
0.01 0.005 0 0 0 73.7282
0.015 0.005 0 0 0 62.0715
0.02 0.005 0 0 0 45.7279
0.025 0.005 0 0 0 33.964
0.03 0.005 0 0 0 26.0661
0.035 0.005 0 0 0 20.6333
0.04 0.005 0 0 0 16.725
0.045 0.005 0 0 0 13.7907
0.05 0.005 0 0 0 11.5117
0.055 0.005 0 0 0 9.69723
0.06 0.005 0 0 0 8.22728
0.065 0.005 0 0 0 7.0221
0.07 0.005 0 0 0 6.02597
0.075 0.005 0 0 0 5.1982
0.08 0.005 0 0 0 4.50797
0.085 0.005 0 0 0 3.93125
0.09 0.005 0 0 0 3.4489
0.095 0.005 0 0 0 3.04546
0.1 0.005 0 0 0 2.70825
0.105 0.005 0 0 0 2.42683
0.11 0.005 0 0 0 2.19254
0.115 0.005 0 0 0 1.99816
0.12 0.005 0 0 0 1.83767
0.125 0.005 0 0 0 1.70603
0.13 0.005 0 0 0 1.59903
0.135 0.005 0 0 0 1.51314
0.14 0.005 0 0 0 1.4454
0.145 0.005 0 0 0 1.39334
0.15 0.005 0 0 0 1.35487
0.155 0.005 0 0 0 1.32826
0.16 0.005 0 0 0 1.31206
0.165 0.005 0 0 0 1.30503
0.17 0.005 0 0 0 1.30616
0.175 0.005 0 0 0 1.3146
0.18 0.005 0 0 0 1.32963
0.185 0.005 0 0 0 1.35064
0.19 0.005 0 0 0 1.37714
0.195 0.005 0 0 0 1.40869
0.2 0.005 0 0 0 1.44495
0.205 0.005 0 0 0 1.4856
0.21 0.005 0 0 0 1.53039
0.215 0.005 0 0 0 1.5791
0.22 0.005 0 0 0 1.63154
0.225 0.005 0 0 0 1.68753
0.23 0.005 0 0 0 1.74692
0.235 0.005 0 0 0 1.80959
0.24 0.005 0 0 0 1.8754
0.245 0.005 0 0 0 1.94425
0.25 0.005 0 0 0 2.01602
0.255 0.005 0 0 0 2.0906
0.26 0.005 0 0 0 2.1679
0.265 0.005 0 0 0 2.24781
0.27 0.005 0 0 0 2.33023
0.275 0.005 0 0 0 2.41506
0.28 0.005 0 0 0 2.50218
0.285 0.005 0 0 0 2.59149
0.29 0.005 0 0 0 2.68287
0.295 0.005 0 0 0 2.77622
0.3 0.005 0 0 0 2.87139
0.305 0.005 0 0 0 2.96828
0.31 0.005 0 0 0 3.06675
0.315 0.005 0 0 0 3.16665
0.32 0.005 0 0 0 3.26786
0.325 0.005 0 0 0 3.37021
0.33 0.005 0 0 0 3.47356
0.335 0.005 0 0 0 3.57775
0.34 0.005 0 0 0 3.68262
0.345 0.005 0 0 0 3.788
0.35 0.005 0 0 0 3.89371
0.355 0.005 0 0 0 3.99957
0.36 0.005 0 0 0 4.10541
0.365 0.005 0 0 0 4.21103
0.37 0.005 0 0 0 4.31625
0.375 0.005 0 0 0 4.42087
0.38 0.005 0 0 0 4.52468
0.385 0.005 0 0 0 4.6275
0.39 0.005 0 0 0 4.72911
0.395 0.005 0 0 0 4.82931
0.4 0.005 0 0 0 4.9279
0.405 0.005 0 0 0 5.02466
0.41 0.005 0 0 0 5.11938
0.415 0.005 0 0 0 5.21186
0.42 0.005 0 0 0 5.30189
0.425 0.005 0 0 0 5.38926
0.43 0.005 0 0 0 5.47375
0.435 0.005 0 0 0 5.55517
0.44 0.005 0 0 0 5.63331
0.445 0.005 0 0 0 5.70798
0.45 0.005 0 0 0 5.77897
0.455 0.005 0 0 0 5.8461
0.46 0.005 0 0 0 5.90917
0.465 0.005 0 0 0 5.96801
0.47 0.005 0 0 0 6.02244
0.475 0.005 0 0 0 6.07229
0.48 0.005 0 0 0 6.1174
0.485 0.005 0 0 0 6.15762
0.49 0.005 0 0 0 6.19279
0.495 0.005 0 0 0 6.22278
0.5 0.005 0 0 0 6.24747
0.505 0.005 0 0 0 6.26673
0.51 0.005 0 0 0 6.28046
0.515 0.005 0 0 0 6.28857
0.52 0.005 0 0 0 6.29096
0.525 0.005 0 0 0 6.28757
0.53 0.005 0 0 0 6.27834
0.535 0.005 0 0 0 6.26322
0.54 0.005 0 0 0 6.24218
0.545 0.005 0 0 0 6.21521
0.55 0.005 0 0 0 6.18229
0.555 0.005 0 0 0 6.14344
0.56 0.005 0 0 0 6.09868
0.565 0.005 0 0 0 6.04806
0.57 0.005 0 0 0 5.99163
0.575 0.005 0 0 0 5.92947
0.58 0.005 0 0 0 5.86166
0.585 0.005 0 0 0 5.7883
0.59 0.005 0 0 0 5.70951
0.595 0.005 0 0 0 5.62543
0.6 0.005 0 0 0 5.53622
0.605 0.005 0 0 0 5.44202
0.61 0.005 0 0 0 5.34303
0.615 0.005 0 0 0 5.23944
0.62 0.005 0 0 0 5.13145
0.625 0.005 0 0 0 5.01929
0.63 0.005 0 0 0 4.9032
0.635 0.005 0 0 0 4.78342
0.64 0.005 0 0 0 4.6602
0.645 0.005 0 0 0 4.53383
0.65 0.005 0 0 0 4.40457
0.655 0.005 0 0 0 4.27272
0.66 0.005 0 0 0 4.13857
0.665 0.005 0 0 0 4.00242
0.67 0.005 0 0 0 3.86459
0.675 0.005 0 0 0 3.72538
0.68 0.005 0 0 0 3.58511
0.685 0.005 0 0 0 3.4441
0.69 0.005 0 0 0 3.30266
0.695 0.005 0 0 0 3.16112
0.7 0.005 0 0 0 3.01978
0.705 0.005 0 0 0 2.87897
0.71 0.005 0 0 0 2.73898
0.715 0.005 0 0 0 2.60012
0.72 0.005 0 0 0 2.46269
0.725 0.005 0 0 0 2.32697
0.73 0.005 0 0 0 2.19324
0.735 0.005 0 0 0 2.06176
0.74 0.005 0 0 0 1.93279
0.745 0.005 0 0 0 1.80657
0.75 0.005 0 0 0 1.68333
0.755 0.005 0 0 0 1.56328
0.76 0.005 0 0 0 1.44662
0.765 0.005 0 0 0 1.33353
0.77 0.005 0 0 0 1.22418
0.775 0.005 0 0 0 1.11871
0.78 0.005 0 0 0 1.01726
0.785 0.005 0 0 0 0.919944
0.79 0.005 0 0 0 0.826855
0.795 0.005 0 0 0 0.738074
0.8 0.005 0 0 0 0.65366
0.805 0.005 0 0 0 0.573659
0.81 0.005 0 0 0 0.498097
0.815 0.005 0 0 0 0.426984
0.82 0.005 0 0 0 0.360315
0.825 0.005 0 0 0 0.298069
0.83 0.005 0 0 0 0.24021
0.835 0.005 0 0 0 0.186687
0.84 0.005 0 0 0 0.137438
0.845 0.005 0 0 0 0.0923879
0.85 0.005 0 0 0 0.0514485
0.855 0.005 0 0 0 0.0145229
0.86 0.005 0 0 0 -0.018496
0.865 0.005 0 0 0 -0.0477237
0.87 0.005 0 0 0 -0.0732836
0.875 0.005 0 0 0 -0.0953057
0.88 0.005 0 0 0 -0.113926
0.885 0.005 0 0 0 -0.129285
0.89 0.005 0 0 0 -0.141528
0.895 0.005 0 0 0 -0.150805
0.9 0.005 0 0 0 -0.157267
0.905 0.005 0 0 0 -0.161071
0.91 0.005 0 0 0 -0.162374
0.915 0.005 0 0 0 -0.161339
0.92 0.005 0 0 0 -0.158131
0.925 0.005 0 0 0 -0.152918
0.93 0.005 0 0 0 -0.145878
0.935 0.005 0 0 0 -0.137193
0.94 0.005 0 0 0 -0.127057
0.945 0.005 0 0 0 -0.115676
0.95 0.005 0 0 0 -0.103273
0.955 0.005 0 0 0 -0.0900973
0.96 0.005 0 0 0 -0.0764238
0.965 0.005 0 0 0 -0.0625673
0.97 0.005 0 0 0 -0.0488907
0.975 0.005 0 0 0 -0.0358177
0.98 0.005 0 0 0 -0.0238459
0.985 0.005 0 0 0 -0.013556
0.99 0.005 0 0 0 -0.00560268
0.995 0.005 0 0 0 -0.000638863
1 0.005 0 0 0 0.000964336
0 0.01 0 0 0.000964336 0
0.005 0.01 0 0 0 -326.272
0.01 0.01 -0.180045 0.0775893 -0.000921602 -44.4025
0.015 0.01 -0.184863 -0.0350003 -0.000775893 9.53046
0.02 0.01 -0.156388 -0.0351343 -0.000571599 19.117
0.025 0.01 -0.127553 -0.0245773 -0.000424551 18.9903
0.03 0.01 -0.104143 -0.0166634 -0.000325826 16.8237
0.035 0.01 -0.0859062 -0.0116764 -0.000257917 14.4913
0.04 0.01 -0.0716493 -0.00855334 -0.000209062 12.4218
0.045 0.01 -0.0603301 -0.00651663 -0.000172383 10.669
0.05 0.01 -0.0511946 -0.00511678 -0.000143896 9.19843
0.055 0.01 -0.043719 -0.00410549 -0.000121215 7.9626
0.06 0.01 -0.0375369 -0.00334391 -0.000102841 6.91987
0.065 0.01 -0.0323857 -0.00275164 -8.77762e-05 6.03672
0.07 0.01 -0.0280711 -0.00227987 -7.53246e-05 5.28664
0.075 0.01 -0.0244449 -0.0018975 -6.49775e-05 4.64851
0.08 0.01 -0.0213911 -0.00158369 -5.63496e-05 4.10521
0.085 0.01 -0.0188169 -0.00132383 -4.91406e-05 3.6427
0.09 0.01 -0.0166469 -0.00110723 -4.31113e-05 3.24929
0.095 0.01 -0.0148187 -0.000925812 -3.80682e-05 2.91515
0.1 0.01 -0.0132807 -0.00077328 -3.38531e-05 2.63194
0.105 0.01 -0.0119896 -0.000644637 -3.03354e-05 2.39259
0.11 0.01 -0.0109091 -0.000535841 -2.74067e-05 2.19106
0.115 0.01 -0.0100085 -0.00044359 -2.4977e-05 2.02218
0.12 0.01 -0.00926192 -0.00036516 -2.29708e-05 1.88153
0.125 0.01 -0.00864762 -0.000298293 -2.13253e-05 1.76534
0.13 0.01 -0.00814714 -0.000241107 -1.99878e-05 1.67038
0.135 0.01 -0.00774487 -0.000192031 -1.89142e-05 1.59389
0.14 0.01 -0.00742765 -0.000149749 -1.80675e-05 1.5335
0.145 0.01 -0.00718435 -0.00011316 -1.74167e-05 1.4872
0.15 0.01 -0.00700557 -8.13415e-05 -1.69359e-05 1.45329
0.155 0.01 -0.00688337 -5.35179e-05 -1.66033e-05 1.43029
0.16 0.01 -0.00681105 -2.90402e-05 -1.64007e-05 1.41696
0.165 0.01 -0.00678297 -7.36407e-06 -1.63128e-05 1.41224
0.17 0.01 -0.00679435 1.19661e-05 -1.6327e-05 1.41523
0.175 0.01 -0.00684116 2.93316e-05 -1.64325e-05 1.42516
0.18 0.01 -0.00692002 4.50507e-05 -1.66203e-05 1.44138
0.185 0.01 -0.00702805 5.93886e-05 -1.6883e-05 1.46332
0.19 0.01 -0.00716281 7.25661e-05 -1.72142e-05 1.49052
0.195 0.01 -0.00732225 8.47658e-05 -1.76086e-05 1.52256
0.2 0.01 -0.00750461 9.61388e-05 -1.80618e-05 1.5591
0.205 0.01 -0.00770839 0.000106809 -1.857e-05 1.59983
0.21 0.01 -0.00793229 0.000116879 -1.91299e-05 1.64448
0.215 0.01 -0.00817519 0.000126431 -1.97388e-05 1.69284
0.22 0.01 -0.00843611 0.000135531 -2.03942e-05 1.74469
0.225 0.01 -0.00871419 0.000144234 -2.10941e-05 1.79985
0.23 0.01 -0.00900863 0.00015258 -2.18365e-05 1.85817
0.235 0.01 -0.00931874 0.000160603 -2.26199e-05 1.91948
0.24 0.01 -0.00964386 0.000168326 -2.34425e-05 1.98366
0.245 0.01 -0.00998337 0.000175769 -2.43031e-05 2.05056
0.25 0.01 -0.0103367 0.000182944 -2.52002e-05 2.12007
0.255 0.01 -0.0107033 0.000189858 -2.61325e-05 2.19207
0.26 0.01 -0.0110826 0.000196514 -2.70988e-05 2.26644
0.265 0.01 -0.011474 0.000202914 -2.80977e-05 2.34305
0.27 0.01 -0.0118771 0.000209055 -2.91279e-05 2.4218
0.275 0.01 -0.0122912 0.000214933 -3.01882e-05 2.50257
0.28 0.01 -0.0127158 0.00022054 -3.12772e-05 2.58523
0.285 0.01 -0.0131503 0.000225868 -3.23936e-05 2.66968
0.29 0.01 -0.0135942 0.000230909 -3.35359e-05 2.75578
0.295 0.01 -0.0140468 0.00023565 -3.47027e-05 2.8434
0.3 0.01 -0.0145074 0.000240081 -3.58924e-05 2.93243
0.305 0.01 -0.0149755 0.000244189 -3.71035e-05 3.02272
0.31 0.01 -0.0154504 0.000247962 -3.83343e-05 3.11413
0.315 0.01 -0.0159314 0.000251385 -3.95832e-05 3.20654
0.32 0.01 -0.0164177 0.000254447 -4.08482e-05 3.29979
0.325 0.01 -0.0169086 0.000257133 -4.21276e-05 3.39373
0.33 0.01 -0.0174034 0.00025943 -4.34195e-05 3.48822
0.335 0.01 -0.0179013 0.000261325 -4.4722e-05 3.58309
0.34 0.01 -0.0184014 0.000262804 -4.60328e-05 3.67819
0.345 0.01 -0.018903 0.000263855 -4.735e-05 3.77335
0.35 0.01 -0.0194051 0.000264467 -4.86714e-05 3.86841
0.355 0.01 -0.019907 0.000264626 -4.99947e-05 3.9632
0.36 0.01 -0.0204077 0.000264323 -5.13177e-05 4.05755
0.365 0.01 -0.0209063 0.000263547 -5.2638e-05 4.15129
0.37 0.01 -0.021402 0.000262288 -5.39532e-05 4.24423
0.375 0.01 -0.0218937 0.000260537 -5.52609e-05 4.3362
0.38 0.01 -0.0223805 0.000258288 -5.65586e-05 4.42703
0.385 0.01 -0.0228616 0.000255532 -5.78438e-05 4.51653
0.39 0.01 -0.0233358 0.000252265 -5.91139e-05 4.60451
0.395 0.01 -0.0238023 0.000248481 -6.03665e-05 4.69081
0.4 0.01 -0.0242601 0.000244177 -6.15988e-05 4.77524
0.405 0.01 -0.0247083 0.000239351 -6.28083e-05 4.85762
0.41 0.01 -0.0251457 0.000234001 -6.39924e-05 4.93777
0.415 0.01 -0.0255715 0.000228128 -6.51484e-05 5.01552
0.42 0.01 -0.0259848 0.000221732 -6.62737e-05 5.09068
0.425 0.01 -0.0263845 0.000214817 -6.73657e-05 5.16309
0.43 0.01 -0.0267697 0.000207387 -6.84219e-05 5.23258
0.435 0.01 -0.0271394 0.000199447 -6.94397e-05 5.29897
0.44 0.01 -0.0274929 0.000191003 -7.04165e-05 5.3621
0.445 0.01 -0.0278291 0.000182065 -7.13498e-05 5.42182
0.45 0.01 -0.0281472 0.000172642 -7.22372e-05 5.47797
0.455 0.01 -0.0284463 0.000162745 -7.30763e-05 5.5304
0.46 0.01 -0.0287256 0.000152386 -7.38647e-05 5.57897
0.465 0.01 -0.0289844 0.000141581 -7.46002e-05 5.62353
0.47 0.01 -0.0292217 0.000130344 -7.52806e-05 5.66396
0.475 0.01 -0.029437 0.000118693 -7.59037e-05 5.70013
0.48 0.01 -0.0296294 0.000106646 -7.64676e-05 5.73192
0.485 0.01 -0.0297984 9.42236e-05 -7.69703e-05 5.75922
0.49 0.01 -0.0299433 8.14473e-05 -7.74099e-05 5.78193
0.495 0.01 -0.0300635 6.83401e-05 -7.77849e-05 5.79995
0.5 0.01 -0.0301585 5.49265e-05 -7.80934e-05 5.8132
0.505 0.01 -0.0302278 4.12323e-05 -7.83342e-05 5.82161
0.51 0.01 -0.030271 2.72848e-05 -7.85059e-05 5.8251
0.515 0.01 -0.0302876 1.31127e-05 -7.86072e-05 5.82362
0.52 0.01 -0.0302775 -1.25422e-06 -7.86371e-05 5.81713
0.525 0.01 -0.0302402 -1.57848e-05 -7.85947e-05 5.80557
0.53 0.01 -0.0301756 -3.04466e-05 -7.84794e-05 5.78894
0.535 0.01 -0.0300835 -4.52062e-05 -7.82904e-05 5.76722
0.54 0.01 -0.0299639 -6.00291e-05 -7.80274e-05 5.74039
0.545 0.01 -0.0298167 -7.48798e-05 -7.76902e-05 5.70848
0.55 0.01 -0.0296419 -8.9722e-05 -7.72787e-05 5.6715
0.555 0.01 -0.0294397 -0.000104519 -7.67931e-05 5.62947
0.56 0.01 -0.0292102 -0.000119232 -7.62337e-05 5.58246
0.565 0.01 -0.0289537 -0.000133823 -7.56009e-05 5.5305
0.57 0.01 -0.0286704 -0.000148254 -7.48955e-05 5.47367
0.575 0.01 -0.0283609 -0.000162485 -7.41185e-05 5.41205
0.58 0.01 -0.0280254 -0.000176477 -7.32708e-05 5.34573
0.585 0.01 -0.0276646 -0.000190192 -7.23538e-05 5.27481
0.59 0.01 -0.0272789 -0.000203589 -7.1369e-05 5.19941
0.595 0.01 -0.0268692 -0.000216631 -7.0318e-05 5.11965
0.6 0.01 -0.026436 -0.000229278 -6.92028e-05 5.03568
0.605 0.01 -0.0259802 -0.000241494 -6.80254e-05 4.94764
0.61 0.01 -0.0255026 -0.000253242 -6.6788e-05 4.8557
0.615 0.01 -0.0250042 -0.000264486 -6.54931e-05 4.76002
0.62 0.01 -0.0244858 -0.000275192 -6.41432e-05 4.6608
0.625 0.01 -0.0239487 -0.000285326 -6.27413e-05 4.55821
0.63 0.01 -0.0233938 -0.000294858 -6.12901e-05 4.45246
0.635 0.01 -0.0228223 -0.000303757 -5.97928e-05 4.34377
0.64 0.01 -0.0222353 -0.000311996 -5.82526e-05 4.23234
0.645 0.01 -0.0216342 -0.00031955 -5.66729e-05 4.11841
0.65 0.01 -0.0210202 -0.000326395 -5.50572e-05 4.0022
0.655 0.01 -0.0203946 -0.000332511 -5.34091e-05 3.88396
0.66 0.01 -0.0197588 -0.000337879 -5.17322e-05 3.76393
0.665 0.01 -0.0191141 -0.000342484 -5.00304e-05 3.64236
0.67 0.01 -0.018462 -0.000346313 -4.83075e-05 3.5195
0.675 0.01 -0.0178038 -0.000349358 -4.65673e-05 3.3956
0.68 0.01 -0.017141 -0.000351611 -4.4814e-05 3.27093
0.685 0.01 -0.0164751 -0.00035307 -4.30513e-05 3.14574
0.69 0.01 -0.0158075 -0.000353734 -4.12833e-05 3.02029
0.695 0.01 -0.0151396 -0.000353607 -3.9514e-05 2.89483
0.7 0.01 -0.0144729 -0.000352696 -3.77473e-05 2.76964
0.705 0.01 -0.0138087 -0.000351009 -3.59871e-05 2.64494
0.71 0.01 -0.0131486 -0.00034856 -3.42373e-05 2.52101
0.715 0.01 -0.0124937 -0.000345366 -3.25016e-05 2.39808
0.72 0.01 -0.0118456 -0.000341446 -3.07837e-05 2.27639
0.725 0.01 -0.0112054 -0.000336822 -2.90872e-05 2.15618
0.73 0.01 -0.0105745 -0.000331519 -2.74155e-05 2.03767
0.735 0.01 -0.00995399 -0.000325565 -2.57721e-05 1.92109
0.74 0.01 -0.00934512 -0.000318992 -2.41599e-05 1.80663
0.745 0.01 -0.00874897 -0.000311831 -2.25822e-05 1.6945
0.75 0.01 -0.00816658 -0.00030412 -2.10416e-05 1.5849
0.755 0.01 -0.00759892 -0.000295893 -1.9541e-05 1.47798
0.76 0.01 -0.00704692 -0.000287191 -1.80827e-05 1.37394
0.765 0.01 -0.00651142 -0.000278055 -1.66691e-05 1.27291
0.77 0.01 -0.00599317 -0.000268525 -1.53022e-05 1.17504
0.775 0.01 -0.00549288 -0.000258645 -1.39839e-05 1.08045
0.78 0.01 -0.00501117 -0.000248458 -1.27158e-05 0.989272
0.785 0.01 -0.00454856 -0.000238008 -1.14993e-05 0.901595
0.79 0.01 -0.00410553 -0.000227339 -1.03357e-05 0.817509
0.795 0.01 -0.00368245 -0.000216495 -9.22593e-06 0.737089
0.8 0.01 -0.00327962 -0.000205519 -8.17076e-06 0.660394
0.805 0.01 -0.00289727 -0.000194455 -7.17074e-06 0.58747
0.81 0.01 -0.00253555 -0.000183344 -6.22621e-06 0.51835
0.815 0.01 -0.00219453 -0.000172227 -5.3373e-06 0.453052
0.82 0.01 -0.00187421 -0.000161143 -4.50393e-06 0.391581
0.825 0.01 -0.00157452 -0.000150131 -3.72585e-06 0.333932
0.83 0.01 -0.00129531 -0.000139226 -3.00261e-06 0.280083
0.835 0.01 -0.00103639 -0.000128463 -2.33358e-06 0.230005
0.84 0.01 -0.000797481 -0.000117873 -1.71797e-06 0.183654
0.845 0.01 -0.00057827 -0.000107486 -1.15484e-06 0.140977
0.85 0.01 -0.000378375 -9.733e-05 -6.43093e-07 0.101909
0.855 0.01 -0.00019737 -8.74293e-05 -1.81523e-07 0.0663792
0.86 0.01 -3.478e-05 -7.78069e-05 2.31214e-07 0.0343044
0.865 0.01 0.000109909 -6.84832e-05 5.96561e-07 0.00559473
0.87 0.01 0.000237251 -5.9476e-05 9.1606e-07 -0.0198471
0.875 0.01 0.000347833 -5.08012e-05 1.19134e-06 -0.0421256
0.88 0.01 0.000442271 -4.24724e-05 1.42409e-06 -0.0613512
0.885 0.01 0.000521209 -3.45015e-05 1.61607e-06 -0.0776402
0.89 0.01 0.000585315 -2.68986e-05 1.76911e-06 -0.0911139
0.895 0.01 0.000635278 -1.96726e-05 1.88507e-06 -0.101899
0.9 0.01 0.000671806 -1.28314e-05 1.96585e-06 -0.110125
0.905 0.01 0.000695625 -6.38271e-06 2.0134e-06 -0.115928
0.91 0.01 0.00070748 -3.34076e-07 2.02969e-06 -0.119448
0.915 0.01 0.000708135 5.30593e-06 2.01675e-06 -0.120828
0.92 0.01 0.000698375 1.05271e-05 1.97664e-06 -0.120217
0.925 0.01 0.00067901 1.53165e-05 1.91149e-06 -0.117771
0.93 0.01 0.000650882 1.96574e-05 1.82349e-06 -0.113652
0.935 0.01 0.000614871 2.35277e-05 1.71492e-06 -0.108029
0.94 0.01 0.000571907 2.68981e-05 1.58822e-06 -0.101083
0.945 0.01 0.000522984 2.97301e-05 1.44595e-06 -0.0930073
0.95 0.01 0.000469174 3.19734e-05 1.29092e-06 -0.0840088
0.955 0.01 0.00041165 3.35625e-05 1.12622e-06 -0.0743137
0.96 0.01 0.000351713 3.4413e-05 9.55301e-07 -0.0641698
0.965 0.01 0.000290819 3.44168e-05 7.82094e-07 -0.0538502
0.97 0.01 0.000230612 3.34373e-05 6.11136e-07 -0.0436559
0.975 0.01 0.000172957 3.13063e-05 4.47723e-07 -0.0339157
0.98 0.01 0.000119963 2.78273e-05 2.98074e-07 -0.0249804
0.985 0.01 7.39694e-05 2.28041e-05 1.6945e-07 -0.0172
0.99 0.01 3.74435e-05 1.61465e-05 7.00336e-08 -0.0108695
0.995 0.01 1.26508e-05 8.20878e-06 7.9857e-09 -0.0061018
1 0.01 7.97863e-07 7.9857e-07 -1.20543e-08 -0.00256727
0 0.015 0 0 -0.00063829 0
0.005 0.015 0 0 0 -255.964
0.01 0.015 -0.152857 0.184863 -0.00180045 -79.256
0.015 0.015 -0.206244 -0.0236574 -0.00184863 -16.6391
0.02 0.015 -0.204592 -0.0573099 -0.00156388 2.31127
0.025 0.015 -0.184577 -0.0522447 -0.00127553 7.92161
0.03 0.015 -0.161059 -0.0416473 -0.00104143 9.24487
0.035 0.015 -0.139029 -0.0324937 -0.000859062 9.1119
0.04 0.015 -0.119774 -0.0255761 -0.000716493 8.49023
0.045 0.015 -0.103333 -0.0204547 -0.000603301 7.7331
0.05 0.015 -0.0893846 -0.0166111 -0.000511946 6.97381
0.055 0.015 -0.0775566 -0.0136576 -0.00043719 6.26214
0.06 0.015 -0.0675116 -0.0113332 -0.000375369 5.61471
0.065 0.015 -0.0589665 -0.00946583 -0.000323857 5.03473
0.07 0.015 -0.0516885 -0.00794087 -0.000280711 4.51989
0.075 0.015 -0.045486 -0.00668001 -0.000244448 4.06571
0.08 0.015 -0.0402001 -0.00562794 -0.000213911 3.66701
0.085 0.015 -0.0356979 -0.00474419 -0.000188169 3.31854
0.09 0.015 -0.0318676 -0.00399818 -0.000166469 3.01523
0.095 0.015 -0.0286145 -0.00336612 -0.000148187 2.75235
0.1 0.015 -0.0258578 -0.00282906 -0.000132807 2.52554
0.105 0.015 -0.0235287 -0.00237162 -0.000119896 2.33083
0.11 0.015 -0.0215685 -0.00198116 -0.000109091 2.16464
0.115 0.015 -0.0199268 -0.00164717 -0.000100085 2.02374
0.12 0.015 -0.0185606 -0.00136084 -9.26191e-05 1.90526
0.125 0.015 -0.017433 -0.00111477 -8.64761e-05 1.80665
0.13 0.015 -0.0165125 -0.000902744 -8.14713e-05 1.72563
0.135 0.015 -0.0157724 -0.000719475 -7.74486e-05 1.66023
0.14 0.015 -0.0151896 -0.000560509 -7.42764e-05 1.60868
0.145 0.015 -0.0147445 -0.000422073 -7.18434e-05 1.56946
0.15 0.015 -0.0144204 -0.000300973 -7.00556e-05 1.54122
0.155 0.015 -0.0142032 -0.000194507 -6.88336e-05 1.5228
0.16 0.015 -0.0140807 -0.000100393 -6.81104e-05 1.51318
0.165 0.015 -0.0140426 -1.66987e-05 -6.78296e-05 1.51147
0.17 0.015 -0.0140801 5.82024e-05 -6.79434e-05 1.5169
0.175 0.015 -0.0141858 0.000125682 -6.84115e-05 1.52882
0.18 0.015 -0.0143534 0.000186892 -6.92001e-05 1.54663
0.185 0.015 -0.0145773 0.0002428 -7.02804e-05 1.56984
0.19 0.015 -0.0148531 0.000294214 -7.16281e-05 1.59801
0.195 0.015 -0.0151767 0.000341808 -7.32225e-05 1.63075
0.2 0.015 -0.0155448 0.000386144 -7.50461e-05 1.66773
0.205 0.015 -0.0159543 0.000427683 -7.70838e-05 1.70866
0.21 0.015 -0.0164028 0.000466807 -7.93228e-05 1.75327
0.215 0.015 -0.0168879 0.000503828 -8.17519e-05 1.80133
0.22 0.015 -0.0174078 0.000538999 -8.43611e-05 1.85263
0.225 0.015 -0.0179606 0.000572521 -8.71418e-05 1.90697
0.23 0.015 -0.0185448 0.000604557 -9.00863e-05 1.9642
0.235 0.015 -0.0191588 0.000635231 -9.31873e-05 2.02413
0.24 0.015 -0.0198014 0.00066464 -9.64385e-05 2.08663
0.245 0.015 -0.0204712 0.000692855 -9.98337e-05 2.15154
0.25 0.015 -0.021167 0.000719924 -0.000103367 2.21874
0.255 0.015 -0.0218876 0.000745879 -0.000107033 2.28807
0.26 0.015 -0.0226318 0.000770736 -0.000110826 2.35943
0.265 0.015 -0.0233986 0.000794501 -0.00011474 2.43266
0.27 0.015 -0.0241867 0.000817166 -0.000118771 2.50765
0.275 0.015 -0.0249949 0.000838717 -0.000122912 2.58427
0.28 0.015 -0.0258222 0.00085913 -0.000127158 2.66239
0.285 0.015 -0.0266673 0.000878377 -0.000131503 2.74187
0.29 0.015 -0.0275289 0.000896425 -0.000135942 2.82259
0.295 0.015 -0.0284059 0.000913235 -0.000140468 2.90441
0.3 0.015 -0.0292969 0.000928768 -0.000145074 2.9872
0.305 0.015 -0.0302006 0.000942981 -0.000149755 3.07081
0.31 0.015 -0.0311156 0.000955829 -0.000154504 3.1551
0.315 0.015 -0.0320406 0.000967266 -0.000159314 3.23993
0.32 0.015 -0.032974 0.000977246 -0.000164177 3.32516
0.325 0.015 -0.0339144 0.000985724 -0.000169086 3.41064
0.33 0.015 -0.0348604 0.000992653 -0.000174034 3.49622
0.335 0.015 -0.0358102 0.000997989 -0.000179013 3.58174
0.34 0.015 -0.0367624 0.00100169 -0.000184014 3.66705
0.345 0.015 -0.0377153 0.00100371 -0.00018903 3.752
0.35 0.015 -0.0386673 0.00100401 -0.000194051 3.83642
0.355 0.015 -0.0396166 0.00100256 -0.00019907 3.92017
0.36 0.015 -0.0405616 0.000999323 -0.000204077 4.00308
0.365 0.015 -0.0415005 0.000994261 -0.000209063 4.08499
0.37 0.015 -0.0424316 0.00098735 -0.00021402 4.16575
0.375 0.015 -0.0433531 0.000978563 -0.000218937 4.24519
0.38 0.015 -0.0442631 0.00096788 -0.000223805 4.32316
0.385 0.015 -0.04516 0.000955283 -0.000228616 4.3995
0.39 0.015 -0.0460418 0.000940758 -0.000233359 4.47405
0.395 0.015 -0.0469068 0.000924296 -0.000238024 4.54666
0.4 0.015 -0.0477532 0.000905892 -0.000242602 4.61717
0.405 0.015 -0.0485792 0.000885544 -0.000247083 4.68543
0.41 0.015 -0.0493829 0.000863257 -0.000251457 4.75131
0.415 0.015 -0.0501626 0.000839039 -0.000255716 4.81464
0.42 0.015 -0.0509166 0.000812904 -0.000259848 4.87529
0.425 0.015 -0.0516431 0.000784869 -0.000263845 4.93313
0.43 0.015 -0.0523405 0.000754959 -0.000267697 4.98801
0.435 0.015 -0.0530069 0.0007232 -0.000271395 5.03981
0.44 0.015 -0.0536408 0.000689626 -0.000274929 5.08841
0.445 0.015 -0.0542406 0.000654276 -0.000278291 5.13368
0.45 0.015 -0.0548048 0.000617193 -0.000281472 5.17551
0.455 0.015 -0.0553317 0.000578426 -0.000284463 5.21379
0.46 0.015 -0.0558201 0.000538027 -0.000287257 5.24842
0.465 0.015 -0.0562684 0.000496057 -0.000289844 5.2793
0.47 0.015 -0.0566754 0.000452578 -0.000292218 5.30635
0.475 0.015 -0.0570398 0.000407661 -0.00029437 5.32947
0.48 0.015 -0.0573604 0.00036138 -0.000296295 5.34859
0.485 0.015 -0.057636 0.000313812 -0.000297984 5.36365
0.49 0.015 -0.0578658 0.000265044 -0.000299433 5.37458
0.495 0.015 -0.0580486 0.000215163 -0.000300635 5.38133
0.5 0.015 -0.0581837 0.000164263 -0.000301585 5.38385
0.505 0.015 -0.0582702 0.000112444 -0.000302278 5.3821
0.51 0.015 -0.0583075 5.98067e-05 -0.00030271 5.37605
0.515 0.015 -0.058295 6.45957e-06 -0.000302877 5.36569
0.52 0.015 -0.0582322 -4.74862e-05 -0.000302775 5.351
0.525 0.015 -0.0581187 -0.000101915 -0.000302402 5.33197
0.53 0.015 -0.0579544 -0.000156709 -0.000301756 5.30861
0.535 0.015 -0.0577389 -0.000211743 -0.000300835 5.28093
0.54 0.015 -0.0574724 -0.000266894 -0.000299639 5.24896
0.545 0.015 -0.0571547 -0.000322031 -0.000298167 5.21272
0.55 0.015 -0.0567862 -0.000377024 -0.000296419 5.17226
0.555 0.015 -0.0563672 -0.000431739 -0.000294397 5.12762
0.56 0.015 -0.055898 -0.00048604 -0.000292102 5.07887
0.565 0.015 -0.0553792 -0.000539791 -0.000289537 5.02606
0.57 0.015 -0.0548114 -0.000592853 -0.000286705 4.96928
0.575 0.015 -0.0541956 -0.000645088 -0.000283609 4.90861
0.58 0.015 -0.0535325 -0.000696358 -0.000280254 4.84413
0.585 0.015 -0.0528232 -0.000746523 -0.000276646 4.77596
0.59 0.015 -0.0520688 -0.000795447 -0.00027279 4.70421
0.595 0.015 -0.0512707 -0.000842995 -0.000268692 4.62898
0.6 0.015 -0.0504302 -0.000889032 -0.00026436 4.55041
0.605 0.015 -0.0495487 -0.000933428 -0.000259802 4.46863
0.61 0.015 -0.048628 -0.000976055 -0.000255026 4.38379
0.615 0.015 -0.0476697 -0.00101679 -0.000250042 4.29602
0.62 0.015 -0.0466757 -0.00105551 -0.000244859 4.20549
0.625 0.015 -0.0456479 -0.00109211 -0.000239487 4.11235
0.63 0.015 -0.0445882 -0.00112647 -0.000233938 4.01678
0.635 0.015 -0.0434988 -0.0011585 -0.000228223 3.91894
0.64 0.015 -0.042382 -0.00118809 -0.000222354 3.81902
0.645 0.015 -0.0412398 -0.00121517 -0.000216342 3.7172
0.65 0.015 -0.0400748 -0.00123965 -0.000210202 3.61367
0.655 0.015 -0.0388892 -0.00126146 -0.000203946 3.50862
0.66 0.015 -0.0376856 -0.00128055 -0.000197588 3.40224
0.665 0.015 -0.0364665 -0.00129685 -0.000191141 3.29473
0.67 0.015 -0.0352343 -0.00131032 -0.00018462 3.1863
0.675 0.015 -0.0339916 -0.00132095 -0.000178038 3.07714
0.68 0.015 -0.0327412 -0.0013287 -0.000171411 2.96745
0.685 0.015 -0.0314854 -0.00133356 -0.000164752 2.85745
0.69 0.015 -0.030227 -0.00133554 -0.000158075 2.74733
0.695 0.015 -0.0289686 -0.00133465 -0.000151397 2.6373
0.7 0.015 -0.0277127 -0.00133091 -0.000144729 2.52756
0.705 0.015 -0.0264619 -0.00132436 -0.000138088 2.4183
0.71 0.015 -0.0252187 -0.00131504 -0.000131486 2.30972
0.715 0.015 -0.0239856 -0.00130302 -0.000124938 2.20203
0.72 0.015 -0.022765 -0.00128835 -0.000118456 2.09539
0.725 0.015 -0.0215592 -0.00127113 -0.000112054 1.99001
0.73 0.015 -0.0203706 -0.00125143 -0.000105745 1.88605
0.735 0.015 -0.0192013 -0.00122937 -9.95401e-05 1.7837
0.74 0.015 -0.0180534 -0.00120504 -9.34514e-05 1.68312
0.745 0.015 -0.016929 -0.00117856 -8.74898e-05 1.58448
0.75 0.015 -0.0158299 -0.00115006 -8.16659e-05 1.48791
0.755 0.015 -0.014758 -0.00111967 -7.59894e-05 1.39358
0.76 0.015 -0.0137149 -0.00108752 -7.04693e-05 1.30161
0.765 0.015 -0.0127021 -0.00105376 -6.51143e-05 1.21213
0.77 0.015 -0.0117211 -0.00101854 -5.99318e-05 1.12527
0.775 0.015 -0.0107733 -0.000982013 -5.49289e-05 1.04114
0.78 0.015 -0.00985963 -0.000944328 -5.01117e-05 0.959819
0.785 0.015 -0.00898123 -0.000905644 -4.54857e-05 0.881414
0.79 0.015 -0.00813897 -0.000866119 -4.10553e-05 0.805999
0.795 0.015 -0.00733357 -0.000825911 -3.68245e-05 0.733643
0.8 0.015 -0.00656562 -0.000785176 -3.27962e-05 0.664404
0.805 0.015 -0.0058356 -0.000744068 -2.89727e-05 0.59833
0.81 0.015 -0.00514381 -0.000702741 -2.53555e-05 0.535457
0.815 0.015 -0.00449043 -0.000661342 -2.19453e-05 0.475811
0.82 0.015 -0.00387552 -0.000620015 -1.87421e-05 0.419408
0.825 0.015 -0.003299 -0.0005789 -1.57451e-05 0.366254
0.83 0.015 -0.00276067 -0.000538128 -1.29531e-05 0.316344
0.835 0.015 -0.00226019 -0.000497826 -1.03638e-05 0.269664