Title=" Lid Driven Flow"
VARIABLES="X","Y","U","V","psi","xi"
ZONE T= "BOX", I= 201, J=201, F=POINT
0 0 0 0 0.000941655 0
0.005 0 0 0 0 0
0.01 0 0 0 0 0
0.015 0 0 0 0 161.889
0.02 0 0 0 0 176.132
0.025 0 0 0 0 155.64
0.03 0 0 0 0 133.287
0.035 0 0 0 0 115.808
0.04 0 0 0 0 102.991
0.045 0 0 0 0 93.4858
0.05 0 0 0 0 86.1792
0.055 0 0 0 0 80.3364
0.06 0 0 0 0 75.4987
0.065 0 0 0 0 71.3774
0.07 0 0 0 0 67.786
0.075 0 0 0 0 64.5995
0.08 0 0 0 0 61.7311
0.085 0 0 0 0 59.119
0.09 0 0 0 0 56.7183
0.095 0 0 0 0 54.4952
0.1 0 0 0 0 52.4244
0.105 0 0 0 0 50.4861
0.11 0 0 0 0 48.6648
0.115 0 0 0 0 46.9483
0.12 0 0 0 0 45.3264
0.125 0 0 0 0 43.7908
0.13 0 0 0 0 42.3344
0.135 0 0 0 0 40.9512
0.14 0 0 0 0 39.636
0.145 0 0 0 0 38.3841
0.15 0 0 0 0 37.1912
0.155 0 0 0 0 36.0536
0.16 0 0 0 0 34.9677
0.165 0 0 0 0 33.9304
0.17 0 0 0 0 32.9385
0.175 0 0 0 0 31.9894
0.18 0 0 0 0 31.0802
0.185 0 0 0 0 30.2086
0.19 0 0 0 0 29.372
0.195 0 0 0 0 28.5683
0.2 0 0 0 0 27.7954
0.205 0 0 0 0 27.0511
0.21 0 0 0 0 26.3336
0.215 0 0 0 0 25.641
0.22 0 0 0 0 24.9717
0.225 0 0 0 0 24.324
0.23 0 0 0 0 23.6963
0.235 0 0 0 0 23.0872
0.24 0 0 0 0 22.4953
0.245 0 0 0 0 21.9193
0.25 0 0 0 0 21.3581
0.255 0 0 0 0 20.8104
0.26 0 0 0 0 20.2753
0.265 0 0 0 0 19.7517
0.27 0 0 0 0 19.2388
0.275 0 0 0 0 18.7357
0.28 0 0 0 0 18.2416
0.285 0 0 0 0 17.7558
0.29 0 0 0 0 17.2777
0.295 0 0 0 0 16.8067
0.3 0 0 0 0 16.3423
0.305 0 0 0 0 15.884
0.31 0 0 0 0 15.4314
0.315 0 0 0 0 14.9842
0.32 0 0 0 0 14.542
0.325 0 0 0 0 14.1047
0.33 0 0 0 0 13.672
0.335 0 0 0 0 13.2438
0.34 0 0 0 0 12.82
0.345 0 0 0 0 12.4005
0.35 0 0 0 0 11.9853
0.355 0 0 0 0 11.5744
0.36 0 0 0 0 11.1679
0.365 0 0 0 0 10.7658
0.37 0 0 0 0 10.3683
0.375 0 0 0 0 9.97554
0.38 0 0 0 0 9.58765
0.385 0 0 0 0 9.20484
0.39 0 0 0 0 8.82731
0.395 0 0 0 0 8.45529
0.4 0 0 0 0 8.08902
0.405 0 0 0 0 7.72875
0.41 0 0 0 0 7.37473
0.415 0 0 0 0 7.02722
0.42 0 0 0 0 6.68648
0.425 0 0 0 0 6.35278
0.43 0 0 0 0 6.02635
0.435 0 0 0 0 5.70746
0.44 0 0 0 0 5.39633
0.445 0 0 0 0 5.09319
0.45 0 0 0 0 4.79824
0.455 0 0 0 0 4.51168
0.46 0 0 0 0 4.23368
0.465 0 0 0 0 3.96439
0.47 0 0 0 0 3.70394
0.475 0 0 0 0 3.45244
0.48 0 0 0 0 3.20996
0.485 0 0 0 0 2.97658
0.49 0 0 0 0 2.75231
0.495 0 0 0 0 2.53717
0.5 0 0 0 0 2.33114
0.505 0 0 0 0 2.13418
0.51 0 0 0 0 1.94622
0.515 0 0 0 0 1.76717
0.52 0 0 0 0 1.59692
0.525 0 0 0 0 1.43534
0.53 0 0 0 0 1.28227
0.535 0 0 0 0 1.13753
0.54 0 0 0 0 1.00095
0.545 0 0 0 0 0.87231
0.55 0 0 0 0 0.751397
0.555 0 0 0 0 0.63798
0.56 0 0 0 0 0.531818
0.565 0 0 0 0 0.43266
0.57 0 0 0 0 0.34025
0.575 0 0 0 0 0.254325
0.58 0 0 0 0 0.174619
0.585 0 0 0 0 0.100863
0.59 0 0 0 0 0.0327871
0.595 0 0 0 0 -0.0298781
0.6 0 0 0 0 -0.0874012
0.605 0 0 0 0 -0.140048
0.61 0 0 0 0 -0.18808
0.615 0 0 0 0 -0.231757
0.62 0 0 0 0 -0.271329
0.625 0 0 0 0 -0.307045
0.63 0 0 0 0 -0.339143
0.635 0 0 0 0 -0.367857
0.64 0 0 0 0 -0.39341
0.645 0 0 0 0 -0.416021
0.65 0 0 0 0 -0.435895
0.655 0 0 0 0 -0.453232
0.66 0 0 0 0 -0.468221
0.665 0 0 0 0 -0.481042
0.67 0 0 0 0 -0.491863
0.675 0 0 0 0 -0.500845
0.68 0 0 0 0 -0.508138
0.685 0 0 0 0 -0.51388
0.69 0 0 0 0 -0.518202
0.695 0 0 0 0 -0.521225
0.7 0 0 0 0 -0.523058
0.705 0 0 0 0 -0.523802
0.71 0 0 0 0 -0.523551
0.715 0 0 0 0 -0.522389
0.72 0 0 0 0 -0.520391
0.725 0 0 0 0 -0.517625
0.73 0 0 0 0 -0.514154
0.735 0 0 0 0 -0.510032
0.74 0 0 0 0 -0.505308
0.745 0 0 0 0 -0.500026
0.75 0 0 0 0 -0.494224
0.755 0 0 0 0 -0.487936
0.76 0 0 0 0 -0.481194
0.765 0 0 0 0 -0.474024
0.77 0 0 0 0 -0.466452
0.775 0 0 0 0 -0.458497
0.78 0 0 0 0 -0.450181
0.785 0 0 0 0 -0.441521
0.79 0 0 0 0 -0.432535
0.795 0 0 0 0 -0.423236
0.8 0 0 0 0 -0.41364
0.805 0 0 0 0 -0.403761
0.81 0 0 0 0 -0.393612
0.815 0 0 0 0 -0.383205
0.82 0 0 0 0 -0.372553
0.825 0 0 0 0 -0.361668
0.83 0 0 0 0 -0.350562
0.835 0 0 0 0 -0.339249
0.84 0 0 0 0 -0.327739
0.845 0 0 0 0 -0.316046
0.85 0 0 0 0 -0.304182
0.855 0 0 0 0 -0.292161
0.86 0 0 0 0 -0.279995
0.865 0 0 0 0 -0.267698
0.87 0 0 0 0 -0.255286
0.875 0 0 0 0 -0.242773
0.88 0 0 0 0 -0.230177
0.885 0 0 0 0 -0.217513
0.89 0 0 0 0 -0.204803
0.895 0 0 0 0 -0.192065
0.9 0 0 0 0 -0.179324
0.905 0 0 0 0 -0.166604
0.91 0 0 0 0 -0.153932
0.915 0 0 0 0 -0.14134
0.92 0 0 0 0 -0.128863
0.925 0 0 0 0 -0.116539
0.93 0 0 0 0 -0.104413
0.935 0 0 0 0 -0.0925339
0.94 0 0 0 0 -0.0809581
0.945 0 0 0 0 -0.0697491
0.95 0 0 0 0 -0.0589788
0.955 0 0 0 0 -0.0487285
0.96 0 0 0 0 -0.03909
0.965 0 0 0 0 -0.030167
0.97 0 0 0 0 -0.0220752
0.975 0 0 0 0 -0.0149434
0.98 0 0 0 0 -0.00891104
0.985 0 0 0 0 -0.00412402
0.99 0 0 0 0 -0.00072078
0.995 0 0 0 0 0.00119976
1 0 0 0 0 0.00165363
0 0.005 0 0 0 0
0.005 0.005 0 0 0 0
0.01 0.005 0 0 0 73.7255
0.015 0.005 0 0 0 61.9938
0.02 0.005 0 0 0 45.547
0.025 0.005 0 0 0 33.7222
0.03 0.005 0 0 0 25.8367
0.035 0.005 0 0 0 20.4868
0.04 0.005 0 0 0 16.7135
0.045 0.005 0 0 0 13.9455
0.05 0.005 0 0 0 11.8456
0.055 0.005 0 0 0 10.209
0.06 0.005 0 0 0 8.90622
0.065 0.005 0 0 0 7.85142
0.07 0.005 0 0 0 6.98575
0.075 0.005 0 0 0 6.26739
0.08 0.005 0 0 0 5.66579
0.085 0.005 0 0 0 5.15808
0.09 0.005 0 0 0 4.72684
0.095 0.005 0 0 0 4.35853
0.1 0.005 0 0 0 4.04252
0.105 0.005 0 0 0 3.77033
0.11 0.005 0 0 0 3.53514
0.115 0.005 0 0 0 3.3314
0.12 0.005 0 0 0 3.15458
0.125 0.005 0 0 0 3.00091
0.13 0.005 0 0 0 2.86728
0.135 0.005 0 0 0 2.75107
0.14 0.005 0 0 0 2.65008
0.145 0.005 0 0 0 2.56245
0.15 0.005 0 0 0 2.48659
0.155 0.005 0 0 0 2.42113
0.16 0.005 0 0 0 2.36492
0.165 0.005 0 0 0 2.31693
0.17 0.005 0 0 0 2.27629
0.175 0.005 0 0 0 2.24223
0.18 0.005 0 0 0 2.21409
0.185 0.005 0 0 0 2.19127
0.19 0.005 0 0 0 2.17325
0.195 0.005 0 0 0 2.15956
0.2 0.005 0 0 0 2.14981
0.205 0.005 0 0 0 2.14361
0.21 0.005 0 0 0 2.14064
0.215 0.005 0 0 0 2.14059
0.22 0.005 0 0 0 2.1432
0.225 0.005 0 0 0 2.14821
0.23 0.005 0 0 0 2.1554
0.235 0.005 0 0 0 2.16457
0.24 0.005 0 0 0 2.17551
0.245 0.005 0 0 0 2.18806
0.25 0.005 0 0 0 2.20203
0.255 0.005 0 0 0 2.21729
0.26 0.005 0 0 0 2.23368
0.265 0.005 0 0 0 2.25107
0.27 0.005 0 0 0 2.26931
0.275 0.005 0 0 0 2.2883
0.28 0.005 0 0 0 2.30791
0.285 0.005 0 0 0 2.32802
0.29 0.005 0 0 0 2.34854
0.295 0.005 0 0 0 2.36934
0.3 0.005 0 0 0 2.39034
0.305 0.005 0 0 0 2.41143
0.31 0.005 0 0 0 2.43252
0.315 0.005 0 0 0 2.45352
0.32 0.005 0 0 0 2.47435
0.325 0.005 0 0 0 2.4949
0.33 0.005 0 0 0 2.51511
0.335 0.005 0 0 0 2.53488
0.34 0.005 0 0 0 2.55415
0.345 0.005 0 0 0 2.57284
0.35 0.005 0 0 0 2.59087
0.355 0.005 0 0 0 2.60817
0.36 0.005 0 0 0 2.62468
0.365 0.005 0 0 0 2.64034
0.37 0.005 0 0 0 2.65507
0.375 0.005 0 0 0 2.66882
0.38 0.005 0 0 0 2.68153
0.385 0.005 0 0 0 2.69315
0.39 0.005 0 0 0 2.70363
0.395 0.005 0 0 0 2.71292
0.4 0.005 0 0 0 2.72097
0.405 0.005 0 0 0 2.72776
0.41 0.005 0 0 0 2.73323
0.415 0.005 0 0 0 2.73735
0.42 0.005 0 0 0 2.74009
0.425 0.005 0 0 0 2.74143
0.43 0.005 0 0 0 2.74134
0.435 0.005 0 0 0 2.7398
0.44 0.005 0 0 0 2.7368
0.445 0.005 0 0 0 2.73232
0.45 0.005 0 0 0 2.72635
0.455 0.005 0 0 0 2.71888
0.46 0.005 0 0 0 2.70992
0.465 0.005 0 0 0 2.69947
0.47 0.005 0 0 0 2.68752
0.475 0.005 0 0 0 2.6741
0.48 0.005 0 0 0 2.6592
0.485 0.005 0 0 0 2.64286
0.49 0.005 0 0 0 2.62508
0.495 0.005 0 0 0 2.60589
0.5 0.005 0 0 0 2.58531
0.505 0.005 0 0 0 2.56337
0.51 0.005 0 0 0 2.5401
0.515 0.005 0 0 0 2.51554
0.52 0.005 0 0 0 2.48972
0.525 0.005 0 0 0 2.46267
0.53 0.005 0 0 0 2.43445
0.535 0.005 0 0 0 2.40509
0.54 0.005 0 0 0 2.37464
0.545 0.005 0 0 0 2.34315
0.55 0.005 0 0 0 2.31065
0.555 0.005 0 0 0 2.27721
0.56 0.005 0 0 0 2.24287
0.565 0.005 0 0 0 2.20768
0.57 0.005 0 0 0 2.1717
0.575 0.005 0 0 0 2.13498
0.58 0.005 0 0 0 2.09757
0.585 0.005 0 0 0 2.05953
0.59 0.005 0 0 0 2.02091
0.595 0.005 0 0 0 1.98176
0.6 0.005 0 0 0 1.94215
0.605 0.005 0 0 0 1.90211
0.61 0.005 0 0 0 1.86171
0.615 0.005 0 0 0 1.821
0.62 0.005 0 0 0 1.78003
0.625 0.005 0 0 0 1.73885
0.63 0.005 0 0 0 1.69751
0.635 0.005 0 0 0 1.65606
0.64 0.005 0 0 0 1.61455
0.645 0.005 0 0 0 1.57302
0.65 0.005 0 0 0 1.53151
0.655 0.005 0 0 0 1.49008
0.66 0.005 0 0 0 1.44877
0.665 0.005 0 0 0 1.40761
0.67 0.005 0 0 0 1.36664
0.675 0.005 0 0 0 1.3259
0.68 0.005 0 0 0 1.28544
0.685 0.005 0 0 0 1.24527
0.69 0.005 0 0 0 1.20544
0.695 0.005 0 0 0 1.16597
0.7 0.005 0 0 0 1.1269
0.705 0.005 0 0 0 1.08826
0.71 0.005 0 0 0 1.05006
0.715 0.005 0 0 0 1.01234
0.72 0.005 0 0 0 0.975113
0.725 0.005 0 0 0 0.938409
0.73 0.005 0 0 0 0.902247
0.735 0.005 0 0 0 0.866644
0.74 0.005 0 0 0 0.83162
0.745 0.005 0 0 0 0.79719
0.75 0.005 0 0 0 0.763371
0.755 0.005 0 0 0 0.730176
0.76 0.005 0 0 0 0.697619
0.765 0.005 0 0 0 0.665712
0.77 0.005 0 0 0 0.634466
0.775 0.005 0 0 0 0.603892
0.78 0.005 0 0 0 0.573999
0.785 0.005 0 0 0 0.544795
0.79 0.005 0 0 0 0.51629
0.795 0.005 0 0 0 0.48849
0.8 0.005 0 0 0 0.461401
0.805 0.005 0 0 0 0.435031
0.81 0.005 0 0 0 0.409384
0.815 0.005 0 0 0 0.384466
0.82 0.005 0 0 0 0.360282
0.825 0.005 0 0 0 0.336835
0.83 0.005 0 0 0 0.314131
0.835 0.005 0 0 0 0.292172
0.84 0.005 0 0 0 0.270963
0.845 0.005 0 0 0 0.250507
0.85 0.005 0 0 0 0.230807
0.855 0.005 0 0 0 0.211866
0.86 0.005 0 0 0 0.193687
0.865 0.005 0 0 0 0.176273
0.87 0.005 0 0 0 0.159627
0.875 0.005 0 0 0 0.143753
0.88 0.005 0 0 0 0.128653
0.885 0.005 0 0 0 0.11433
0.89 0.005 0 0 0 0.100787
0.895 0.005 0 0 0 0.0880292
0.9 0.005 0 0 0 0.0760586
0.905 0.005 0 0 0 0.0648794
0.91 0.005 0 0 0 0.0544955
0.915 0.005 0 0 0 0.0449109
0.92 0.005 0 0 0 0.0361298
0.925 0.005 0 0 0 0.0281565
0.93 0.005 0 0 0 0.0209949
0.935 0.005 0 0 0 0.0146488
0.94 0.005 0 0 0 0.00912122
0.945 0.005 0 0 0 0.00441416
0.95 0.005 0 0 0 0.000527581
0.955 0.005 0 0 0 -0.00254153
0.96 0.005 0 0 0 -0.00480087
0.965 0.005 0 0 0 -0.00626537
0.97 0.005 0 0 0 -0.00696109
0.975 0.005 0 0 0 -0.00693131
0.98 0.005 0 0 0 -0.00624632
0.985 0.005 0 0 0 -0.00501906
0.99 0.005 0 0 0 -0.00343021
0.995 0.005 0 0 0 -0.00176492
1 0.005 0 0 0 -0.00044952
0 0.01 0 0 -0.00044952 0
0.005 0.01 0 0 0 -326.275
0.01 0.01 -0.179964 0.0774922 -0.000921568 -44.4685
0.015 0.01 -0.184522 -0.035223 -0.000774922 9.45735
0.02 0.01 -0.155757 -0.0353394 -0.000569338 19.0666
0.025 0.01 -0.126799 -0.0246379 -0.000421528 18.967
0.03 0.01 -0.10352 -0.0165443 -0.000322959 16.8392
0.035 0.01 -0.0856616 -0.0114039 -0.000256085 14.5661
0.04 0.01 -0.0719723 -0.00817663 -0.000208919 12.578
0.045 0.01 -0.0613389 -0.00608496 -0.000174319 10.9241
0.05 0.01 -0.0529419 -0.00467056 -0.00014807 9.56289
0.055 0.01 -0.0462049 -0.00367418 -0.000127613 8.43979
0.06 0.01 -0.0407235 -0.00294702 -0.000111328 7.50718
0.065 0.01 -0.0362096 -0.00240058 -9.81426e-05 6.72701
0.07 0.01 -0.0324545 -0.00198002 -8.73217e-05 6.06973
0.075 0.01 -0.0293035 -0.00164994 -7.83422e-05 5.51238
0.08 0.01 -0.0266398 -0.00138662 -7.08222e-05 5.03708
0.085 0.01 -0.0243739 -0.00117367 -6.44758e-05 4.62971
0.09 0.01 -0.022436 -0.000999423 -5.90853e-05 4.27904
0.095 0.01 -0.0207711 -0.000855381 -5.44814e-05 3.97605
0.1 0.01 -0.0193351 -0.000735233 -5.05313e-05 3.71343
0.105 0.01 -0.0180925 -0.000634207 -4.71289e-05 3.48519
0.11 0.01 -0.0170145 -0.000548639 -4.41891e-05 3.28641
0.115 0.01 -0.0160774 -0.000475681 -4.16424e-05 3.11301
0.12 0.01 -0.0152614 -0.000413096 -3.94321e-05 2.96156
0.125 0.01 -0.0145503 -0.000359104 -3.75112e-05 2.82922
0.13 0.01 -0.0139303 -0.000312282 -3.58408e-05 2.71356
0.135 0.01 -0.01339 -0.000271478 -3.43882e-05 2.61253
0.14 0.01 -0.0129195 -0.000235757 -3.31259e-05 2.52439
0.145 0.01 -0.0125105 -0.000204353 -3.20305e-05 2.44763
0.15 0.01 -0.0121559 -0.000176633 -3.10822e-05 2.38097
0.155 0.01 -0.0118495 -0.000152075 -3.0264e-05 2.32328
0.16 0.01 -0.011586 -0.000130244 -2.95613e-05 2.27361
0.165 0.01 -0.0113609 -0.000110773 -2.89614e-05 2.23111
0.17 0.01 -0.01117 -9.33571e-05 -2.84534e-05 2.19503
0.175 0.01 -0.01101 -7.7737e-05 -2.80277e-05 2.16473
0.18 0.01 -0.0108776 -6.36931e-05 -2.7676e-05 2.13964
0.185 0.01 -0.0107702 -5.10388e-05 -2.73907e-05 2.11924
0.19 0.01 -0.0106854 -3.96149e-05 -2.71655e-05 2.10309
0.195 0.01 -0.0106209 -2.92849e-05 -2.69945e-05 2.09078
0.2 0.01 -0.010575 -1.99318e-05 -2.68725e-05 2.08196
0.205 0.01 -0.0105457 -1.14549e-05 -2.67951e-05 2.07629
0.21 0.01 -0.0105316 -3.76727e-06 -2.67579e-05 2.07348
0.215 0.01 -0.0105313 3.20623e-06 -2.67573e-05 2.07326
0.22 0.01 -0.0105435 9.53066e-06 -2.67899e-05 2.0754
0.225 0.01 -0.0105669 1.52625e-05 -2.68526e-05 2.07966
0.23 0.01 -0.0106007 2.04508e-05 -2.69425e-05 2.08585
0.235 0.01 -0.0106436 2.51384e-05 -2.70571e-05 2.09377
0.24 0.01 -0.0106949 2.93624e-05 -2.71939e-05 2.10326
0.245 0.01 -0.0107537 3.31555e-05 -2.73507e-05 2.11414
0.25 0.01 -0.0108192 3.65462e-05 -2.75254e-05 2.12627
0.255 0.01 -0.0108906 3.95594e-05 -2.77162e-05 2.1395
0.26 0.01 -0.0109672 4.22171e-05 -2.7921e-05 2.15371
0.265 0.01 -0.0110485 4.45387e-05 -2.81384e-05 2.16875
0.27 0.01 -0.0111337 4.65413e-05 -2.83665e-05 2.18452
0.275 0.01 -0.0112222 4.82399e-05 -2.86038e-05 2.2009
0.28 0.01 -0.0113136 4.96483e-05 -2.88489e-05 2.21778
0.285 0.01 -0.0114072 5.07784e-05 -2.91004e-05 2.23506
0.29 0.01 -0.0115026 5.16411e-05 -2.93568e-05 2.25264
0.295 0.01 -0.0115992 5.22464e-05 -2.96169e-05 2.27041
0.3 0.01 -0.0116965 5.26033e-05 -2.98794e-05 2.2883
0.305 0.01 -0.0117941 5.27202e-05 -3.0143e-05 2.30621
0.31 0.01 -0.0118916 5.26048e-05 -3.04067e-05 2.32406
0.315 0.01 -0.0119884 5.22646e-05 -3.06692e-05 2.34176
0.32 0.01 -0.0120843 5.17065e-05 -3.09295e-05 2.35923
0.325 0.01 -0.0121787 5.09371e-05 -3.11864e-05 2.37641
0.33 0.01 -0.0122713 4.99632e-05 -3.1439e-05 2.39321
0.335 0.01 -0.0123618 4.8791e-05 -3.16862e-05 2.40956
0.34 0.01 -0.0124496 4.7427e-05 -3.19271e-05 2.42539
0.345 0.01 -0.0125346 4.58775e-05 -3.21607e-05 2.44065
0.35 0.01 -0.0126163 4.41491e-05 -3.23861e-05 2.45526
0.355 0.01 -0.0126944 4.2248e-05 -3.26024e-05 2.46917
0.36 0.01 -0.0127686 4.01811e-05 -3.28088e-05 2.48231
0.365 0.01 -0.0128386 3.79549e-05 -3.30044e-05 2.49463
0.37 0.01 -0.0129041 3.55766e-05 -3.31886e-05 2.50608
0.375 0.01 -0.0129649 3.3053e-05 -3.33604e-05 2.51661
0.38 0.01 -0.0130206 3.03916e-05 -3.35194e-05 2.52617
0.385 0.01 -0.0130711 2.75998e-05 -3.36646e-05 2.53471
0.39 0.01 -0.0131161 2.46852e-05 -3.37956e-05 2.5422
0.395 0.01 -0.0131553 2.16558e-05 -3.39118e-05 2.54859
0.4 0.01 -0.0131887 1.85196e-05 -3.40125e-05 2.55385
0.405 0.01 -0.0132159 1.52848e-05 -3.40973e-05 2.55794
0.41 0.01 -0.0132369 1.19599e-05 -3.41656e-05 2.56085
0.415 0.01 -0.0132514 8.55348e-06 -3.42172e-05 2.56253
0.42 0.01 -0.0132594 5.0742e-06 -3.42515e-05 2.56297
0.425 0.01 -0.0132607 1.53094e-06 -3.42682e-05 2.56214
0.43 0.01 -0.0132553 -2.06736e-06 -3.42671e-05 2.56003
0.435 0.01 -0.0132429 -5.71165e-06 -3.42479e-05 2.55662
0.44 0.01 -0.0132237 -9.39286e-06 -3.42103e-05 2.55191
0.445 0.01 -0.0131974 -1.31019e-05 -3.41543e-05 2.54588
0.45 0.01 -0.0131641 -1.68296e-05 -3.40797e-05 2.53854
0.455 0.01 -0.0131238 -2.05669e-05 -3.39864e-05 2.52987
0.46 0.01 -0.0130764 -2.43047e-05 -3.38744e-05 2.51988
0.465 0.01 -0.013022 -2.80342e-05 -3.37437e-05 2.50858
0.47 0.01 -0.0129606 -3.17465e-05 -3.35944e-05 2.49597
0.475 0.01 -0.0128923 -3.54328e-05 -3.34266e-05 2.48206
0.48 0.01 -0.0128171 -3.90846e-05 -3.32404e-05 2.46688
0.485 0.01 -0.012735 -4.26937e-05 -3.30361e-05 2.45042
0.49 0.01 -0.0126463 -4.62519e-05 -3.28138e-05 2.43272
0.495 0.01 -0.012551 -4.97514e-05 -3.25739e-05 2.41379
0.5 0.01 -0.0124492 -5.31847e-05 -3.23167e-05 2.39366
0.505 0.01 -0.012341 -5.65444e-05 -3.20425e-05 2.37236
0.51 0.01 -0.0122267 -5.98237e-05 -3.17516e-05 2.34991
0.515 0.01 -0.0121063 -6.30159e-05 -3.14446e-05 2.32634
0.52 0.01 -0.0119801 -6.6115e-05 -3.11218e-05 2.30169
0.525 0.01 -0.0118482 -6.91151e-05 -3.07838e-05 2.27599
0.53 0.01 -0.0117108 -7.20107e-05 -3.0431e-05 2.24929
0.535 0.01 -0.0115682 -7.47969e-05 -3.0064e-05 2.22161
0.54 0.01 -0.0114204 -7.74691e-05 -2.96834e-05 2.193
0.545 0.01 -0.0112679 -8.00232e-05 -2.92897e-05 2.16349
0.55 0.01 -0.0111107 -8.24555e-05 -2.88835e-05 2.13314
0.555 0.01 -0.0109491 -8.47628e-05 -2.84654e-05 2.10199
0.56 0.01 -0.0107834 -8.69423e-05 -2.80362e-05 2.07007
0.565 0.01 -0.0106138 -8.89917e-05 -2.75963e-05 2.03744
0.57 0.01 -0.0104405 -9.09091e-05 -2.71466e-05 2.00413
0.575 0.01 -0.0102639 -9.26931e-05 -2.66875e-05 1.97021
0.58 0.01 -0.010084 -9.43426e-05 -2.62199e-05 1.9357
0.585 0.01 -0.00990125 -9.58571e-05 -2.57444e-05 1.90067
0.59 0.01 -0.00971584 -9.72365e-05 -2.52616e-05 1.86515
0.595 0.01 -0.00952801 -9.84809e-05 -2.47723e-05 1.82919
0.6 0.01 -0.00933804 -9.9591e-05 -2.42771e-05 1.79285
0.605 0.01 -0.00914615 -0.000100568 -2.37767e-05 1.75615
0.61 0.01 -0.00895261 -0.000101413 -2.32717e-05 1.71916
0.615 0.01 -0.00875766 -0.000102127 -2.27628e-05 1.68192
0.62 0.01 -0.00856152 -0.000102714 -2.22506e-05 1.64446
0.625 0.01 -0.00836445 -0.000103174 -2.17359e-05 1.60684
0.63 0.01 -0.00816667 -0.000103511 -2.12191e-05 1.56909
0.635 0.01 -0.00796842 -0.000103728 -2.0701e-05 1.53126
0.64 0.01 -0.0077699 -0.000103827 -2.0182e-05 1.49339
0.645 0.01 -0.00757133 -0.000103812 -1.96629e-05 1.45552
0.65 0.01 -0.00737294 -0.000103685 -1.91441e-05 1.41769
0.655 0.01 -0.00717491 -0.000103452 -1.86262e-05 1.37993
0.66 0.01 -0.00697744 -0.000103115 -1.81098e-05 1.34228
0.665 0.01 -0.00678073 -0.000102678 -1.75953e-05 1.30477
0.67 0.01 -0.00658495 -0.000102145 -1.70832e-05 1.26745
0.675 0.01 -0.00639028 -0.000101521 -1.65739e-05 1.23033
0.68 0.01 -0.00619688 -0.000100808 -1.60681e-05 1.19346
0.685 0.01 -0.00600493 -0.000100012 -1.5566e-05 1.15686
0.69 0.01 -0.00581456 -9.9135e-05 -1.50681e-05 1.12056
0.695 0.01 -0.00562592 -9.81826e-05 -1.45748e-05 1.08459
0.7 0.01 -0.00543916 -9.71582e-05 -1.40864e-05 1.04897
0.705 0.01 -0.0052544 -9.60658e-05 -1.36033e-05 1.01373
0.71 0.01 -0.00507177 -9.49091e-05 -1.31258e-05 0.978882
0.715 0.01 -0.00489138 -9.3692e-05 -1.26543e-05 0.944461
0.72 0.01 -0.00471334 -9.24181e-05 -1.2189e-05 0.910481
0.725 0.01 -0.00453776 -9.1091e-05 -1.17302e-05 0.876963
0.73 0.01 -0.00436474 -8.97141e-05 -1.12782e-05 0.843924
0.735 0.01 -0.00419435 -8.82908e-05 -1.08331e-05 0.811383
0.74 0.01 -0.0040267 -8.68243e-05 -1.03953e-05 0.779354
0.745 0.01 -0.00386185 -8.53176e-05 -9.96494e-06 0.747852
0.75 0.01 -0.00369988 -8.37737e-05 -9.54219e-06 0.716892
0.755 0.01 -0.00354086 -8.21953e-05 -9.12725e-06 0.686486
0.76 0.01 -0.00338485 -8.05851e-05 -8.72028e-06 0.656646
0.765 0.01 -0.00323192 -7.89456e-05 -8.32144e-06 0.627384
0.77 0.01 -0.0030821 -7.72791e-05 -7.93086e-06 0.59871
0.775 0.01 -0.00293547 -7.55877e-05 -7.54868e-06 0.570634
0.78 0.01 -0.00279205 -7.38736e-05 -7.17501e-06 0.543165
0.785 0.01 -0.00265189 -7.21386e-05 -6.80996e-06 0.51631
0.79 0.01 -0.00251504 -7.03845e-05 -6.45364e-06 0.490078
0.795 0.01 -0.00238152 -6.86128e-05 -6.10614e-06 0.464475
0.8 0.01 -0.00225138 -6.68252e-05 -5.76753e-06 0.439509
0.805 0.01 -0.00212464 -6.50228e-05 -5.43789e-06 0.415185
0.81 0.01 -0.00200132 -6.32069e-05 -5.11731e-06 0.39151
0.815 0.01 -0.00188147 -6.13787e-05 -4.80583e-06 0.368488
0.82 0.01 -0.00176509 -5.9539e-05 -4.50352e-06 0.346124
0.825 0.01 -0.00165222 -5.76888e-05 -4.21044e-06 0.324424
0.83 0.01 -0.00154287 -5.58287e-05 -3.92664e-06 0.303391
0.835 0.01 -0.00143707 -5.39595e-05 -3.65215e-06 0.28303
0.84 0.01 -0.00133483 -5.20815e-05 -3.38704e-06 0.263344
0.845 0.01 -0.00123617 -5.01954e-05 -3.13134e-06 0.244338
0.85 0.01 -0.0011411 -4.83013e-05 -2.88508e-06 0.226015
0.855 0.01 -0.00104966 -4.63996e-05 -2.64832e-06 0.208379
0.86 0.01 -0.00096184 -4.44903e-05 -2.42108e-06 0.191432
0.865 0.01 -0.00087767 -4.25736e-05 -2.20341e-06 0.175179
0.87 0.01 -0.000797161 -4.06495e-05 -1.99533e-06 0.159623
0.875 0.01 -0.000720331 -3.87177e-05 -1.7969e-06 0.144767
0.88 0.01 -0.000647195 -3.67782e-05 -1.60815e-06 0.130614
0.885 0.01 -0.000577768 -3.48307e-05 -1.42911e-06 0.117168
0.89 0.01 -0.000512067 -3.28748e-05 -1.25983e-06 0.104432
0.895 0.01 -0.000450109 -3.09101e-05 -1.10036e-06 0.0924087
0.9 0.01 -0.000391911 -2.89364e-05 -9.50724e-07 0.0811018
0.905 0.01 -0.000337489 -2.69531e-05 -8.10984e-07 0.0705144
0.91 0.01 -0.000286862 -2.49598e-05 -6.81185e-07 0.0606495
0.915 0.01 -0.000240047 -2.29562e-05 -5.61378e-07 0.05151
0.92 0.01 -0.00019706 -2.09423e-05 -4.51616e-07 0.0430984
0.925 0.01 -0.000157918 -1.8918e-05 -3.51949e-07 0.0354169
0.93 0.01 -0.000122634 -1.6884e-05 -2.6243e-07 0.0284668
0.935 0.01 -9.12194e-05 -1.48414e-05 -1.83104e-07 0.0222485
0.94 0.01 -6.36791e-05 -1.27927e-05 -1.1401e-07 0.0167609
0.945 0.01 -4.00108e-05 -1.07416e-05 -5.51727e-08 0.0120006
0.95 0.01 -2.02003e-05 -8.69418e-06 -6.59104e-09 0.00796144
0.955 0.01 -4.21577e-06 -6.66019e-06 3.17722e-08 0.00463284
0.96 0.01 8.00028e-06 -4.65449e-06 6.00134e-08 0.00199827
0.965 0.01 1.65428e-05 -2.70002e-06 7.83191e-08 3.27189e-05
0.97 0.01 2.15613e-05 -8.32228e-07 8.7015e-08 -0.00130065
0.975 0.01 2.32853e-05 8.93609e-07 8.66424e-08 -0.0020552
0.98 0.01 2.20612e-05 2.39042e-06 7.80795e-08 -0.00230703
0.985 0.01 1.84053e-05 3.52019e-06 6.27385e-08 -0.00216228
0.99 0.01 1.30782e-05 4.06769e-06 4.28777e-08 -0.00176287
0.995 0.01 7.17567e-06 3.72587e-06 2.20615e-08 -0.00128031
1 0.01 2.20218e-06 2.20615e-06 5.61895e-09 -0.000864302
0 0.015 0 0 -0.00176174 0
0.005 0.015 0 0 0 -256.029
0.01 0.015 -0.152658 0.184522 -0.00179964 -79.3449
0.015 0.015 -0.205711 -0.0242073 -0.00184522 -16.668
0.02 0.015 -0.203797 -0.0577225 -0.00155757 2.38336
0.025 0.015 -0.183786 -0.0522366 -0.00126799 8.06912
0.03 0.015 -0.160629 -0.0411374 -0.0010352 9.44042
0.035 0.015 -0.139299 -0.0315477 -0.000856616 9.34468
0.04 0.015 -0.12101 -0.0243226 -0.000719723 8.76207
0.045 0.015 -0.105706 -0.0190304 -0.000613389 8.05135
0.05 0.015 -0.0929758 -0.015134 -0.000529419 7.3464
0.055 0.015 -0.0823689 -0.0122184 -0.000462049 6.69491
0.06 0.015 -0.0734899 -0.00999526 -0.000407234 6.1105
0.065 0.015 -0.0660151 -0.00826891 -0.000362096 5.59329
0.07 0.015 -0.0596864 -0.00690613 -0.000324545 5.13835
0.075 0.015 -0.0542989 -0.00581471 -0.000293034 4.73916
0.08 0.015 -0.04969 -0.00492955 -0.000266397 4.38913
0.085 0.015 -0.0457297 -0.00420372 -0.000243738 4.0821
0.09 0.015 -0.0423134 -0.00360276 -0.000224359 3.81261
0.095 0.015 -0.0393564 -0.00310087 -0.00020771 3.57586
0.1 0.015 -0.0367895 -0.00267847 -0.00019335 3.36768
0.105 0.015 -0.0345558 -0.00232047 -0.000180925 3.1845
0.11 0.015 -0.0326083 -0.0020151 -0.000170145 3.02323
0.115 0.015 -0.0309079 -0.00175309 -0.000160773 2.88121
0.12 0.015 -0.0294217 -0.00152703 -0.000152613 2.75613
0.125 0.015 -0.028122 -0.00133102 -0.000145502 2.64604
0.13 0.015 -0.0269856 -0.00116023 -0.000139302 2.5492
0.135 0.015 -0.0259926 -0.00101077 -0.000133899 2.46413
0.14 0.015 -0.025126 -0.000879422 -0.000129194 2.38955
0.145 0.015 -0.0243711 -0.000763546 -0.000125104 2.32432
0.15 0.015 -0.0237156 -0.000660944 -0.000121558 2.26746
0.155 0.015 -0.0231483 -0.000569788 -0.000118494 2.2181
0.16 0.015 -0.02266 -0.000488545 -0.00011586 2.17548
0.165 0.015 -0.0222424 -0.000415923 -0.000113608 2.13893
0.17 0.015 -0.0218881 -0.000350835 -0.0001117 2.10785
0.175 0.015 -0.0215909 -0.000292356 -0.000110099 2.08171
0.18 0.015 -0.0213451 -0.000239699 -0.000108776 2.06004
0.185 0.015 -0.0211458 -0.000192193 -0.000107702 2.04242
0.19 0.015 -0.0209884 -0.000149261 -0.000106854 2.02848
0.195 0.015 -0.0208691 -0.000110411 -0.000106209 2.01786
0.2 0.015 -0.0207842 -7.52161e-05 -0.000105749 2.01026
0.205 0.015 -0.0207306 -4.33086e-05 -0.000105457 2.0054
0.21 0.015 -0.0207054 -1.43705e-05 -0.000105316 2.00302
0.215 0.015 -0.0207059 1.1874e-05 -0.000105313 2.0029
0.22 0.015 -0.0207296 3.56644e-05 -0.000105434 2.00482
0.225 0.015 -0.0207746 5.72095e-05 -0.000105669 2.00859
0.23 0.015 -0.0208386 7.6691e-05 -0.000106006 2.01401
0.235 0.015 -0.0209198 9.42677e-05 -0.000106436 2.02093
0.24 0.015 -0.0210165 0.000110079 -0.000106949 2.02919
0.245 0.015 -0.0211272 0.000124246 -0.000107537 2.03864
0.25 0.015 -0.0212502 0.000136876 -0.000108192 2.04915
0.255 0.015 -0.0213841 0.000148063 -0.000108906 2.06059
0.26 0.015 -0.0215278 0.000157891 -0.000109672 2.07283
0.265 0.015 -0.0216797 0.000166433 -0.000110485 2.08576
0.27 0.015 -0.0218389 0.000173754 -0.000111337 2.09928
0.275 0.015 -0.0220042 0.000179912 -0.000112223 2.11327
0.28 0.015 -0.0221744 0.000184959 -0.000113136 2.12765
0.285 0.015 -0.0223485 0.000188943 -0.000114072 2.14232
0.29 0.015 -0.0225256 0.000191906 -0.000115026 2.15718
0.295 0.015 -0.0227047 0.000193887 -0.000115992 2.17215
0.3 0.015 -0.0228848 0.000194921 -0.000116965 2.18716
0.305 0.015 -0.0230652 0.000195041 -0.000117942 2.20211
0.31 0.015 -0.0232449 0.000194279 -0.000118916 2.21694
0.315 0.015 -0.0234231 0.000192664 -0.000119885 2.23157
0.32 0.015 -0.0235991 0.000190223 -0.000120843 2.24593
0.325 0.015 -0.023772 0.000186984 -0.000121788 2.25995
0.33 0.015 -0.0239412 0.000182974 -0.000122714 2.27357
0.335 0.015 -0.0241058 0.000178217 -0.000123618 2.28673
0.34 0.015 -0.0242653 0.00017274 -0.000124497 2.29937
0.345 0.015 -0.024419 0.000166568 -0.000125346 2.31142
0.35 0.015 -0.0245662 0.000159728 -0.000126163 2.32284
0.355 0.015 -0.0247063 0.000152244 -0.000126945 2.33358
0.36 0.015 -0.0248388 0.000144143 -0.000127687 2.34358
0.365 0.015 -0.024963 0.000135453 -0.000128387 2.35279
0.37 0.015 -0.0250785 0.0001262 -0.000129042 2.36118
0.375 0.015 -0.0251847 0.000116412 -0.00012965 2.36871
0.38 0.015 -0.0252812 0.000106118 -0.000130207 2.37533
0.385 0.015 -0.0253676 9.53472e-05 -0.000130712 2.381
0.39 0.015 -0.0254433 8.41292e-05 -0.000131162 2.3857
0.395 0.015 -0.025508 7.24945e-05 -0.000131555 2.38939
0.4 0.015 -0.0255614 6.04743e-05 -0.000131888 2.39205
0.405 0.015 -0.0256031 4.81001e-05 -0.00013216 2.39366
0.41 0.015 -0.0256328 3.54041e-05 -0.00013237 2.39418
0.415 0.015 -0.0256503 2.24192e-05 -0.000132516 2.39359
0.42 0.015 -0.0256553 9.17843e-06 -0.000132596 2.39189
0.425 0.015 -0.0256476 -4.28476e-06 -0.000132609 2.38906
0.43 0.015 -0.0256271 -1.79366e-05 -0.000132554 2.38509
0.435 0.015 -0.0255935 -3.17431e-05 -0.000132431 2.37996
0.44 0.015 -0.0255468 -4.56702e-05 -0.000132238 2.37368
0.445 0.015 -0.0254869 -5.96838e-05 -0.000131975 2.36624
0.45 0.015 -0.0254138 -7.375e-05 -0.000131642 2.35764
0.455 0.015 -0.0253274 -8.7835e-05 -0.000131239 2.34788
0.46 0.015 -0.0252277 -0.000101905 -0.000130765 2.33696
0.465 0.015 -0.0251149 -0.000115928 -0.000130222 2.3249
0.47 0.015 -0.0249889 -0.00012987 -0.000129608 2.31171
0.475 0.015 -0.02485 -0.000143699 -0.000128924 2.29739
0.48 0.015 -0.0246981 -0.000157385 -0.000128172 2.28196
0.485 0.015 -0.0245335 -0.000170897 -0.000127352 2.26544
0.49 0.015 -0.0243564 -0.000184205 -0.000126464 2.24785
0.495 0.015 -0.024167 -0.000197281 -0.000125511 2.22921
0.5 0.015 -0.0239655 -0.000210097 -0.000124493 2.20954
0.505 0.015 -0.0237522 -0.000222628 -0.000123412 2.18887
0.51 0.015 -0.0235275 -0.000234847 -0.000122268 2.16722
0.515 0.015 -0.0232915 -0.000246731 -0.000121064 2.14463
0.52 0.015 -0.0230446 -0.000258259 -0.000119802 2.12111
0.525 0.015 -0.0227872 -0.000269409 -0.000118483 2.09672
0.53 0.015 -0.0225197 -0.000280161 -0.000117109 2.07147
0.535 0.015 -0.0222424 -0.000290498 -0.000115683 2.0454
0.54 0.015 -0.0219558 -0.000300405 -0.000114206 2.01855
0.545 0.015 -0.0216602 -0.000309865 -0.00011268 1.99096
0.55 0.015 -0.0213561 -0.000318867 -0.000111108 1.96265
0.555 0.015 -0.0210439 -0.000327398 -0.000109493 1.93368
0.56 0.015 -0.020724 -0.00033545 -0.000107836 1.90407
0.565 0.015 -0.020397 -0.000343014 -0.000106139 1.87387
0.57 0.015 -0.0200633 -0.000350083 -0.000104407 1.84311
0.575 0.015 -0.0197233 -0.000356654 -0.00010264 1.81184
0.58 0.015 -0.0193775 -0.000362723 -0.000100841 1.7801
0.585 0.015 -0.0190264 -0.000368288 -9.90136e-05 1.74792
0.59 0.015 -0.0186704 -0.000373349 -9.71594e-05 1.71535
0.595 0.015 -0.01831 -0.000377907 -9.52812e-05 1.68242
0.6 0.015 -0.0179458 -0.000381965 -9.33814e-05 1.64917
0.605 0.015 -0.017578 -0.000385527 -9.14625e-05 1.61565
0.61 0.015 -0.0172073 -0.000388599 -8.95271e-05 1.58189
0.615 0.015 -0.016834 -0.000391186 -8.75775e-05 1.54793
0.62 0.015 -0.0164586 -0.000393297 -8.56161e-05 1.51381
0.625 0.015 -0.0160816 -0.00039494 -8.36454e-05 1.47957
0.63 0.015 -0.0157033 -0.000396125 -8.16676e-05 1.44523
0.635 0.015 -0.0153242 -0.000396862 -7.9685e-05 1.41084
0.64 0.015 -0.0149447 -0.000397162 -7.76998e-05 1.37643
0.645 0.015 -0.0145652 -0.000397038 -7.57141e-05 1.34203
0.65 0.015 -0.0141861 -0.000396503 -7.37301e-05 1.30768
0.655 0.015 -0.0138077 -0.000395568 -7.17498e-05 1.2734
0.66 0.015 -0.0134304 -0.000394249 -6.97751e-05 1.23924
0.665 0.015 -0.0130546 -0.00039256 -6.78079e-05 1.20521
0.67 0.015 -0.0126807 -0.000390513 -6.58501e-05 1.17134
0.675 0.015 -0.0123088 -0.000388125 -6.39034e-05 1.13768
0.68 0.015 -0.0119394 -0.000385409 -6.19694e-05 1.10423
0.685 0.015 -0.0115727 -0.000382381 -6.00498e-05 1.07102
0.69 0.015 -0.0112091 -0.000379055 -5.81461e-05 1.03808
0.695 0.015 -0.0108487 -0.000375445 -5.62597e-05 1.00544
0.7 0.015 -0.0104919 -0.000371568 -5.4392e-05 0.973108
0.705 0.015 -0.0101389 -0.000367435 -5.25444e-05 0.941111
0.71 0.015 -0.00978989 -0.000363063 -5.07181e-05 0.909468
0.715 0.015 -0.00944513 -0.000358464 -4.89142e-05 0.878198
0.72 0.015 -0.00910481 -0.000353652 -4.71338e-05 0.847318
0.725 0.015 -0.00876913 -0.000348641 -4.53779e-05 0.816846
0.73 0.015 -0.00843826 -0.000343442 -4.36476e-05 0.786797
0.735 0.015 -0.00811238 -0.000338067 -4.19438e-05 0.757186
0.74 0.015 -0.00779165 -0.00033253 -4.02672e-05 0.728027
0.745 0.015 -0.00747622 -0.00032684 -3.86187e-05 0.699333
0.75 0.015 -0.00716622 -0.000321009 -3.6999e-05 0.671116
0.755 0.015 -0.00686178 -0.000315047 -3.54088e-05 0.643389
0.76 0.015 -0.00656303 -0.000308963 -3.38487e-05 0.616161
0.765 0.015 -0.00627007 -0.000302767 -3.23193e-05 0.589444
0.77 0.015 -0.00598301 -0.000296467 -3.08212e-05 0.563246
0.775 0.015 -0.00570195 -0.00029007 -2.93548e-05 0.537577
0.78 0.015 -0.00542697 -0.000283586 -2.79206e-05 0.512444
0.785 0.015 -0.00515815 -0.00027702 -2.6519e-05 0.487856
0.79 0.015 -0.00489558 -0.000270378 -2.51505e-05 0.46382
0.795 0.015 -0.00463932 -0.000263668 -2.38153e-05 0.440342
0.8 0.015 -0.00438944 -0.000256894 -2.25138e-05 0.41743
0.805 0.015 -0.004146 -0.000250061 -2.12464e-05 0.395089
0.81 0.015 -0.00390905 -0.000243173 -2.00133e-05 0.373325
0.815 0.015 -0.00367865 -0.000236235 -1.88147e-05 0.352143