Title=" Lid Driven Flow"
VARIABLES="X","Y","U","V","psi","xi"
ZONE T= "BOX", I= 201, J=201, F=POINT
0 0 0 0 0.000706771 0
0.005 0 0 0 0 0
0.01 0 0 0 0 0
0.015 0 0 0 0 161.889
0.02 0 0 0 0 176.133
0.025 0 0 0 0 155.646
0.03 0 0 0 0 133.302
0.035 0 0 0 0 115.831
0.04 0 0 0 0 103.021
0.045 0 0 0 0 93.5215
0.05 0 0 0 0 86.2183
0.055 0 0 0 0 80.3763
0.06 0 0 0 0 75.5363
0.065 0 0 0 0 71.4101
0.07 0 0 0 0 67.8111
0.075 0 0 0 0 64.6146
0.08 0 0 0 0 61.7342
0.085 0 0 0 0 59.1084
0.09 0 0 0 0 56.6924
0.095 0 0 0 0 54.4531
0.1 0 0 0 0 52.3651
0.105 0 0 0 0 50.4091
0.11 0 0 0 0 48.5698
0.115 0 0 0 0 46.8351
0.12 0 0 0 0 45.195
0.125 0 0 0 0 43.6413
0.13 0 0 0 0 42.1672
0.135 0 0 0 0 40.7665
0.14 0 0 0 0 39.4342
0.145 0 0 0 0 38.1656
0.15 0 0 0 0 36.9565
0.155 0 0 0 0 35.8032
0.16 0 0 0 0 34.7021
0.165 0 0 0 0 33.65
0.17 0 0 0 0 32.6438
0.175 0 0 0 0 31.6807
0.18 0 0 0 0 30.7579
0.185 0 0 0 0 29.8731
0.19 0 0 0 0 29.0236
0.195 0 0 0 0 28.2073
0.2 0 0 0 0 27.422
0.205 0 0 0 0 26.6655
0.21 0 0 0 0 25.936
0.215 0 0 0 0 25.2316
0.22 0 0 0 0 24.5505
0.225 0 0 0 0 23.891
0.23 0 0 0 0 23.2517
0.235 0 0 0 0 22.631
0.24 0 0 0 0 22.0275
0.245 0 0 0 0 21.4399
0.25 0 0 0 0 20.8671
0.255 0 0 0 0 20.3078
0.26 0 0 0 0 19.761
0.265 0 0 0 0 19.2257
0.27 0 0 0 0 18.7011
0.275 0 0 0 0 18.1862
0.28 0 0 0 0 17.6804
0.285 0 0 0 0 17.183
0.29 0 0 0 0 16.6933
0.295 0 0 0 0 16.2108
0.3 0 0 0 0 15.735
0.305 0 0 0 0 15.2655
0.31 0 0 0 0 14.8018
0.315 0 0 0 0 14.3439
0.32 0 0 0 0 13.8912
0.325 0 0 0 0 13.4438
0.33 0 0 0 0 13.0014
0.335 0 0 0 0 12.5639
0.34 0 0 0 0 12.1314
0.345 0 0 0 0 11.7037
0.35 0 0 0 0 11.281
0.355 0 0 0 0 10.8633
0.36 0 0 0 0 10.4507
0.365 0 0 0 0 10.0434
0.37 0 0 0 0 9.6415
0.375 0 0 0 0 9.24525
0.38 0 0 0 0 8.85485
0.385 0 0 0 0 8.47053
0.39 0 0 0 0 8.09255
0.395 0 0 0 0 7.72117
0.4 0 0 0 0 7.35666
0.405 0 0 0 0 6.99928
0.41 0 0 0 0 6.64931
0.415 0 0 0 0 6.30702
0.42 0 0 0 0 5.97268
0.425 0 0 0 0 5.64654
0.43 0 0 0 0 5.32883
0.435 0 0 0 0 5.01979
0.44 0 0 0 0 4.71963
0.445 0 0 0 0 4.42853
0.45 0 0 0 0 4.14666
0.455 0 0 0 0 3.87417
0.46 0 0 0 0 3.61118
0.465 0 0 0 0 3.35778
0.47 0 0 0 0 3.11402
0.475 0 0 0 0 2.87996
0.48 0 0 0 0 2.6556
0.485 0 0 0 0 2.44093
0.49 0 0 0 0 2.23589
0.495 0 0 0 0 2.04041
0.5 0 0 0 0 1.8544
0.505 0 0 0 0 1.67774
0.51 0 0 0 0 1.51027
0.515 0 0 0 0 1.35182
0.52 0 0 0 0 1.20222
0.525 0 0 0 0 1.06124
0.53 0 0 0 0 0.928663
0.535 0 0 0 0 0.80425
0.54 0 0 0 0 0.687745
0.545 0 0 0 0 0.578884
0.55 0 0 0 0 0.477391
0.555 0 0 0 0 0.382986
0.56 0 0 0 0 0.295381
0.565 0 0 0 0 0.214285
0.57 0 0 0 0 0.139405
0.575 0 0 0 0 0.070447
0.58 0 0 0 0 0.00711772
0.585 0 0 0 0 -0.0508733
0.59 0 0 0 0 -0.103813
0.595 0 0 0 0 -0.151985
0.6 0 0 0 0 -0.195666
0.605 0 0 0 0 -0.235127
0.61 0 0 0 0 -0.27063
0.615 0 0 0 0 -0.30243
0.62 0 0 0 0 -0.330776
0.625 0 0 0 0 -0.355902
0.63 0 0 0 0 -0.378038
0.635 0 0 0 0 -0.397399
0.64 0 0 0 0 -0.414194
0.645 0 0 0 0 -0.428618
0.65 0 0 0 0 -0.440858
0.655 0 0 0 0 -0.451086
0.66 0 0 0 0 -0.459469
0.665 0 0 0 0 -0.466157
0.67 0 0 0 0 -0.471295
0.675 0 0 0 0 -0.475013
0.68 0 0 0 0 -0.477435
0.685 0 0 0 0 -0.478672
0.69 0 0 0 0 -0.478829
0.695 0 0 0 0 -0.477999
0.7 0 0 0 0 -0.476269
0.705 0 0 0 0 -0.473718
0.71 0 0 0 0 -0.470417
0.715 0 0 0 0 -0.466432
0.72 0 0 0 0 -0.461821
0.725 0 0 0 0 -0.456638
0.73 0 0 0 0 -0.450933
0.735 0 0 0 0 -0.444749
0.74 0 0 0 0 -0.438128
0.745 0 0 0 0 -0.431108
0.75 0 0 0 0 -0.423722
0.755 0 0 0 0 -0.416003
0.76 0 0 0 0 -0.407979
0.765 0 0 0 0 -0.39968
0.77 0 0 0 0 -0.39113
0.775 0 0 0 0 -0.382354
0.78 0 0 0 0 -0.373375
0.785 0 0 0 0 -0.364214
0.79 0 0 0 0 -0.354892
0.795 0 0 0 0 -0.345428
0.8 0 0 0 0 -0.33584
0.805 0 0 0 0 -0.326146
0.81 0 0 0 0 -0.31636
0.815 0 0 0 0 -0.306499
0.82 0 0 0 0 -0.296575
0.825 0 0 0 0 -0.286603
0.83 0 0 0 0 -0.276593
0.835 0 0 0 0 -0.266557
0.84 0 0 0 0 -0.256503
0.845 0 0 0 0 -0.246442
0.85 0 0 0 0 -0.23638
0.855 0 0 0 0 -0.226326
0.86 0 0 0 0 -0.216284
0.865 0 0 0 0 -0.206262
0.87 0 0 0 0 -0.196264
0.875 0 0 0 0 -0.186296
0.88 0 0 0 0 -0.176362
0.885 0 0 0 0 -0.166468
0.89 0 0 0 0 -0.15662
0.895 0 0 0 0 -0.146823
0.9 0 0 0 0 -0.137086
0.905 0 0 0 0 -0.127418
0.91 0 0 0 0 -0.117829
0.915 0 0 0 0 -0.108332
0.92 0 0 0 0 -0.0989447
0.925 0 0 0 0 -0.0896858
0.93 0 0 0 0 -0.0805792
0.935 0 0 0 0 -0.0716534
0.94 0 0 0 0 -0.0629427
0.945 0 0 0 0 -0.0544876
0.95 0 0 0 0 -0.0463362
0.955 0 0 0 0 -0.0385449
0.96 0 0 0 0 -0.0311797
0.965 0 0 0 0 -0.0243173
0.97 0 0 0 0 -0.0180459
0.975 0 0 0 0 -0.0124659
0.98 0 0 0 0 -0.00768952
0.985 0 0 0 0 -0.00383736
0.99 0 0 0 0 -0.00102941
0.995 0 0 0 0 0.000638445
1 0 0 0 0 0.00115121
0 0.005 0 0 0 0
0.005 0.005 0 0 0 0
0.01 0.005 0 0 0 73.7251
0.015 0.005 0 0 0 61.9854
0.02 0.005 0 0 0 45.5281
0.025 0.005 0 0 0 33.6974
0.03 0.005 0 0 0 25.8137
0.035 0.005 0 0 0 20.4728
0.04 0.005 0 0 0 16.7138
0.045 0.005 0 0 0 13.9632
0.05 0.005 0 0 0 11.8819
0.055 0.005 0 0 0 10.2639
0.06 0.005 0 0 0 8.97852
0.065 0.005 0 0 0 7.9396
0.07 0.005 0 0 0 7.08792
0.075 0.005 0 0 0 6.38156
0.08 0.005 0 0 0 5.78998
0.085 0.005 0 0 0 5.2904
0.09 0.005 0 0 0 4.86553
0.095 0.005 0 0 0 4.50198
0.1 0.005 0 0 0 4.18929
0.105 0.005 0 0 0 3.91913
0.11 0.005 0 0 0 3.68482
0.115 0.005 0 0 0 3.48095
0.12 0.005 0 0 0 3.30311
0.125 0.005 0 0 0 3.14764
0.13 0.005 0 0 0 3.01153
0.135 0.005 0 0 0 2.89223
0.14 0.005 0 0 0 2.78761
0.145 0.005 0 0 0 2.69589
0.15 0.005 0 0 0 2.61551
0.155 0.005 0 0 0 2.54517
0.16 0.005 0 0 0 2.48373
0.165 0.005 0 0 0 2.43022
0.17 0.005 0 0 0 2.38379
0.175 0.005 0 0 0 2.34369
0.18 0.005 0 0 0 2.30928
0.185 0.005 0 0 0 2.27998
0.19 0.005 0 0 0 2.25529
0.195 0.005 0 0 0 2.23475
0.2 0.005 0 0 0 2.21797
0.205 0.005 0 0 0 2.20459
0.21 0.005 0 0 0 2.19427
0.215 0.005 0 0 0 2.18674
0.22 0.005 0 0 0 2.18172
0.225 0.005 0 0 0 2.17898
0.23 0.005 0 0 0 2.17829
0.235 0.005 0 0 0 2.17945
0.24 0.005 0 0 0 2.18229
0.245 0.005 0 0 0 2.18661
0.25 0.005 0 0 0 2.19227
0.255 0.005 0 0 0 2.19912
0.26 0.005 0 0 0 2.20702
0.265 0.005 0 0 0 2.21583
0.27 0.005 0 0 0 2.22544
0.275 0.005 0 0 0 2.23572
0.28 0.005 0 0 0 2.24658
0.285 0.005 0 0 0 2.2579
0.29 0.005 0 0 0 2.26958
0.295 0.005 0 0 0 2.28154
0.3 0.005 0 0 0 2.29368
0.305 0.005 0 0 0 2.30592
0.31 0.005 0 0 0 2.31816
0.315 0.005 0 0 0 2.33035
0.32 0.005 0 0 0 2.34239
0.325 0.005 0 0 0 2.35422
0.33 0.005 0 0 0 2.36576
0.335 0.005 0 0 0 2.37696
0.34 0.005 0 0 0 2.38775
0.345 0.005 0 0 0 2.39806
0.35 0.005 0 0 0 2.40783
0.355 0.005 0 0 0 2.41702
0.36 0.005 0 0 0 2.42557
0.365 0.005 0 0 0 2.43343
0.37 0.005 0 0 0 2.44055
0.375 0.005 0 0 0 2.44689
0.38 0.005 0 0 0 2.45241
0.385 0.005 0 0 0 2.45706
0.39 0.005 0 0 0 2.4608
0.395 0.005 0 0 0 2.46362
0.4 0.005 0 0 0 2.46547
0.405 0.005 0 0 0 2.46632
0.41 0.005 0 0 0 2.46615
0.415 0.005 0 0 0 2.46494
0.42 0.005 0 0 0 2.46267
0.425 0.005 0 0 0 2.45932
0.43 0.005 0 0 0 2.45488
0.435 0.005 0 0 0 2.44933
0.44 0.005 0 0 0 2.44267
0.445 0.005 0 0 0 2.43489
0.45 0.005 0 0 0 2.42598
0.455 0.005 0 0 0 2.41596
0.46 0.005 0 0 0 2.40481
0.465 0.005 0 0 0 2.39255
0.47 0.005 0 0 0 2.37917
0.475 0.005 0 0 0 2.3647
0.48 0.005 0 0 0 2.34915
0.485 0.005 0 0 0 2.33252
0.49 0.005 0 0 0 2.31484
0.495 0.005 0 0 0 2.29612
0.5 0.005 0 0 0 2.27639
0.505 0.005 0 0 0 2.25566
0.51 0.005 0 0 0 2.23397
0.515 0.005 0 0 0 2.21134
0.52 0.005 0 0 0 2.1878
0.525 0.005 0 0 0 2.16337
0.53 0.005 0 0 0 2.1381
0.535 0.005 0 0 0 2.11201
0.54 0.005 0 0 0 2.08513
0.545 0.005 0 0 0 2.05751
0.55 0.005 0 0 0 2.02917
0.555 0.005 0 0 0 2.00015
0.56 0.005 0 0 0 1.97049
0.565 0.005 0 0 0 1.94023
0.57 0.005 0 0 0 1.9094
0.575 0.005 0 0 0 1.87805
0.58 0.005 0 0 0 1.84621
0.585 0.005 0 0 0 1.81391
0.59 0.005 0 0 0 1.78121
0.595 0.005 0 0 0 1.74813
0.6 0.005 0 0 0 1.71471
0.605 0.005 0 0 0 1.681
0.61 0.005 0 0 0 1.64702
0.615 0.005 0 0 0 1.61282
0.62 0.005 0 0 0 1.57843
0.625 0.005 0 0 0 1.54389
0.63 0.005 0 0 0 1.50923
0.635 0.005 0 0 0 1.47449
0.64 0.005 0 0 0 1.43969
0.645 0.005 0 0 0 1.40488
0.65 0.005 0 0 0 1.37008
0.655 0.005 0 0 0 1.33532
0.66 0.005 0 0 0 1.30064
0.665 0.005 0 0 0 1.26605
0.67 0.005 0 0 0 1.23159
0.675 0.005 0 0 0 1.19729
0.68 0.005 0 0 0 1.16317
0.685 0.005 0 0 0 1.12925
0.69 0.005 0 0 0 1.09556
0.695 0.005 0 0 0 1.06212
0.7 0.005 0 0 0 1.02895
0.705 0.005 0 0 0 0.996078
0.71 0.005 0 0 0 0.963513
0.715 0.005 0 0 0 0.931279
0.72 0.005 0 0 0 0.899392
0.725 0.005 0 0 0 0.867871
0.73 0.005 0 0 0 0.836729
0.735 0.005 0 0 0 0.805984
0.74 0.005 0 0 0 0.775649
0.745 0.005 0 0 0 0.745738
0.75 0.005 0 0 0 0.716265
0.755 0.005 0 0 0 0.687241
0.76 0.005 0 0 0 0.658678
0.765 0.005 0 0 0 0.630588
0.77 0.005 0 0 0 0.602981
0.775 0.005 0 0 0 0.575869
0.78 0.005 0 0 0 0.549259
0.785 0.005 0 0 0 0.523163
0.79 0.005 0 0 0 0.49759
0.795 0.005 0 0 0 0.472547
0.8 0.005 0 0 0 0.448044
0.805 0.005 0 0 0 0.424089
0.81 0.005 0 0 0 0.40069
0.815 0.005 0 0 0 0.377855
0.82 0.005 0 0 0 0.355591
0.825 0.005 0 0 0 0.333907
0.83 0.005 0 0 0 0.31281
0.835 0.005 0 0 0 0.292308
0.84 0.005 0 0 0 0.272408
0.845 0.005 0 0 0 0.253118
0.85 0.005 0 0 0 0.234445
0.855 0.005 0 0 0 0.216397
0.86 0.005 0 0 0 0.198982
0.865 0.005 0 0 0 0.182208
0.87 0.005 0 0 0 0.166083
0.875 0.005 0 0 0 0.150616
0.88 0.005 0 0 0 0.135814
0.885 0.005 0 0 0 0.121687
0.89 0.005 0 0 0 0.108243
0.895 0.005 0 0 0 0.0954931
0.9 0.005 0 0 0 0.0834456
0.905 0.005 0 0 0 0.0721108
0.91 0.005 0 0 0 0.0614992
0.915 0.005 0 0 0 0.0516214
0.92 0.005 0 0 0 0.0424886
0.925 0.005 0 0 0 0.0341119
0.93 0.005 0 0 0 0.026503
0.935 0.005 0 0 0 0.0196732
0.94 0.005 0 0 0 0.0136336
0.945 0.005 0 0 0 0.00839484
0.95 0.005 0 0 0 0.00396578
0.955 0.005 0 0 0 0.000353123
0.96 0.005 0 0 0 -0.00244044
0.965 0.005 0 0 0 -0.00441855
0.97 0.005 0 0 0 -0.00559497
0.975 0.005 0 0 0 -0.0059995
0.98 0.005 0 0 0 -0.00568776
0.985 0.005 0 0 0 -0.00475716
0.99 0.005 0 0 0 -0.00337323
0.995 0.005 0 0 0 -0.00181023
1 0.005 0 0 0 -0.00049848
0 0.01 0 0 -0.00049848 0
0.005 0.01 0 0 0 -326.275
0.01 0.01 -0.179955 0.0774817 -0.000921563 -44.4754
0.015 0.01 -0.184486 -0.0352462 -0.000774817 9.45001
0.02 0.01 -0.155692 -0.03536 -0.000569101 19.0618
0.025 0.01 -0.126723 -0.0246431 -0.000421217 18.9652
0.03 0.01 -0.103459 -0.0165307 -0.000322671 16.8415
0.035 0.01 -0.0856418 -0.0113748 -0.00025591 14.5749
0.04 0.01 -0.0720126 -0.00813702 -0.000208923 12.5953
0.045 0.01 -0.0614511 -0.00603994 -0.00017454 10.9519
0.05 0.01 -0.0531311 -0.00462414 -0.000148524 9.60216
0.055 0.01 -0.0464711 -0.00362921 -0.000128298 8.49092
0.06 0.01 -0.0410631 -0.00290533 -0.000112231 7.56992
0.065 0.01 -0.0366166 -0.00236324 -9.92449e-05 6.80068
0.07 0.01 -0.0329215 -0.00194753 -8.85989e-05 6.15334
0.075 0.01 -0.0298224 -0.00162242 -7.97694e-05 5.60478
0.08 0.01 -0.0272024 -0.00136394 -7.23746e-05 5.137
0.085 0.01 -0.0249723 -0.00115555 -6.61299e-05 4.73589
0.09 0.01 -0.0230627 -0.000985508 -6.08189e-05 4.39024
0.095 0.01 -0.0214191 -0.000845281 -5.62746e-05 4.0911
0.1 0.01 -0.0199981 -0.000728555 -5.2366e-05 3.83121
0.105 0.01 -0.0187647 -0.000630574 -4.89889e-05 3.60469
0.11 0.01 -0.0176907 -0.0005477 -4.60601e-05 3.4067
0.115 0.01 -0.0167529 -0.000477118 -4.35118e-05 3.23324
0.12 0.01 -0.0159322 -0.000416622 -4.12887e-05 3.08098
0.125 0.01 -0.0152127 -0.000364466 -3.93454e-05 2.94713
0.13 0.01 -0.0145812 -0.000319259 -3.76439e-05 2.82936
0.135 0.01 -0.0140263 -0.000279877 -3.61527e-05 2.72566
0.14 0.01 -0.0135388 -0.000245411 -3.4845e-05 2.63435
0.145 0.01 -0.0131104 -0.000215117 -3.36984e-05 2.55398
0.15 0.01 -0.0127345 -0.000188385 -3.26937e-05 2.4833
0.155 0.01 -0.0124049 -0.00016471 -3.18144e-05 2.42124
0.16 0.01 -0.0121165 -0.00014367 -3.10465e-05 2.36686
0.165 0.01 -0.0118651 -0.000124915 -3.03776e-05 2.31935
0.17 0.01 -0.0116465 -0.000108149 -2.97972e-05 2.27799
0.175 0.01 -0.0114575 -9.31233e-05 -2.9296e-05 2.24217
0.18 0.01 -0.0112951 -7.96264e-05 -2.88659e-05 2.21132
0.185 0.01 -0.0111566 -6.74788e-05 -2.84997e-05 2.18496
0.19 0.01 -0.0110396 -5.65268e-05 -2.8191e-05 2.16265
0.195 0.01 -0.0109422 -4.66389e-05 -2.79343e-05 2.14399
0.2 0.01 -0.0108623 -3.7702e-05 -2.77246e-05 2.12865
0.205 0.01 -0.0107984 -2.96184e-05 -2.75573e-05 2.11631
0.21 0.01 -0.0107489 -2.23036e-05 -2.74284e-05 2.10668
0.215 0.01 -0.0107125 -1.56843e-05 -2.73342e-05 2.09951
0.22 0.01 -0.0106878 -9.69683e-06 -2.72715e-05 2.09455
0.225 0.01 -0.0106739 -4.28553e-06 -2.72372e-05 2.09161
0.23 0.01 -0.0106696 5.982e-07 -2.72286e-05 2.09047
0.235 0.01 -0.010674 4.99696e-06 -2.72432e-05 2.09097
0.24 0.01 -0.0106862 8.94818e-06 -2.72786e-05 2.09293
0.245 0.01 -0.0107053 1.24848e-05 -2.73327e-05 2.09619
0.25 0.01 -0.0107308 1.5636e-05 -2.74035e-05 2.10063
0.255 0.01 -0.0107617 1.84275e-05 -2.74891e-05 2.10609
0.26 0.01 -0.0107975 2.08822e-05 -2.75878e-05 2.11245
0.265 0.01 -0.0108376 2.30205e-05 -2.76979e-05 2.11961
0.27 0.01 -0.0108813 2.48606e-05 -2.7818e-05 2.12743
0.275 0.01 -0.0109282 2.64189e-05 -2.79466e-05 2.13583
0.28 0.01 -0.0109776 2.77103e-05 -2.80823e-05 2.1447
0.285 0.01 -0.0110292 2.8748e-05 -2.82238e-05 2.15395
0.29 0.01 -0.0110824 2.95443e-05 -2.83699e-05 2.16349
0.295 0.01 -0.0111367 3.01103e-05 -2.85194e-05 2.17323
0.3 0.01 -0.0111918 3.04564e-05 -2.86711e-05 2.18309
0.305 0.01 -0.0112473 3.05921e-05 -2.88241e-05 2.193
0.31 0.01 -0.0113027 3.05264e-05 -2.89772e-05 2.20288
0.315 0.01 -0.0113577 3.02677e-05 -2.91295e-05 2.21267
0.32 0.01 -0.011412 2.98241e-05 -2.928e-05 2.22228
0.325 0.01 -0.0114651 2.92031e-05 -2.94279e-05 2.23167
0.33 0.01 -0.0115168 2.84122e-05 -2.95722e-05 2.24077
0.335 0.01 -0.0115667 2.74585e-05 -2.97122e-05 2.24951
0.34 0.01 -0.0116146 2.6349e-05 -2.9847e-05 2.25785
0.345 0.01 -0.0116602 2.50906e-05 -2.99759e-05 2.26573
0.35 0.01 -0.0117031 2.369e-05 -3.00981e-05 2.2731
0.355 0.01 -0.0117432 2.21541e-05 -3.0213e-05 2.27992
0.36 0.01 -0.0117801 2.04894e-05 -3.03199e-05 2.28613
0.365 0.01 -0.0118138 1.87027e-05 -3.04182e-05 2.29169
0.37 0.01 -0.0118438 1.68007e-05 -3.05072e-05 2.29657
0.375 0.01 -0.0118701 1.47902e-05 -3.05864e-05 2.30073
0.38 0.01 -0.0118924 1.26779e-05 -3.06553e-05 2.30412
0.385 0.01 -0.0119106 1.04706e-05 -3.07135e-05 2.30672
0.39 0.01 -0.0119245 8.17528e-06 -3.07603e-05 2.3085
0.395 0.01 -0.0119339 5.79874e-06 -3.07955e-05 2.30943
0.4 0.01 -0.0119387 3.34799e-06 -3.08186e-05 2.30948
0.405 0.01 -0.0119387 8.30014e-07 -3.08293e-05 2.30864
0.41 0.01 -0.0119339 -1.74817e-06 -3.08272e-05 2.30688
0.415 0.01 -0.0119242 -4.37951e-06 -3.08121e-05 2.30417
0.42 0.01 -0.0119094 -7.05695e-06 -3.07837e-05 2.30052
0.425 0.01 -0.0118895 -9.77345e-06 -3.07419e-05 2.29591
0.43 0.01 -0.0118644 -1.2522e-05 -3.06863e-05 2.29031
0.435 0.01 -0.0118341 -1.52955e-05 -3.0617e-05 2.28374
0.44 0.01 -0.0117986 -1.80871e-05 -3.05337e-05 2.27618
0.445 0.01 -0.0117577 -2.08898e-05 -3.04364e-05 2.26763
0.45 0.01 -0.0117116 -2.3697e-05 -3.03251e-05 2.25808
0.455 0.01 -0.0116602 -2.65018e-05 -3.01998e-05 2.24755
0.46 0.01 -0.0116035 -2.92976e-05 -3.00605e-05 2.23603
0.465 0.01 -0.0115416 -3.20781e-05 -2.99072e-05 2.22353
0.47 0.01 -0.0114745 -3.48369e-05 -2.974e-05 2.21007
0.475 0.01 -0.0114022 -3.75679e-05 -2.95591e-05 2.19564
0.48 0.01 -0.0113249 -4.02652e-05 -2.93647e-05 2.18026
0.485 0.01 -0.0112425 -4.2923e-05 -2.91568e-05 2.16395
0.49 0.01 -0.0111552 -4.55358e-05 -2.89358e-05 2.14672
0.495 0.01 -0.0110631 -4.80983e-05 -2.87018e-05 2.12859
0.5 0.01 -0.0109662 -5.06055e-05 -2.84552e-05 2.10959
0.505 0.01 -0.0108647 -5.30527e-05 -2.81961e-05 2.08972
0.51 0.01 -0.0107587 -5.54352e-05 -2.7925e-05 2.06902
0.515 0.01 -0.0106483 -5.7749e-05 -2.76421e-05 2.04751
0.52 0.01 -0.0105337 -5.99901e-05 -2.73478e-05 2.02522
0.525 0.01 -0.0104149 -6.21548e-05 -2.70425e-05 2.00216
0.53 0.01 -0.0102923 -6.42399e-05 -2.67266e-05 1.97838
0.535 0.01 -0.0101658 -6.62423e-05 -2.64004e-05 1.95389
0.54 0.01 -0.0100356 -6.81593e-05 -2.60645e-05 1.92873
0.545 0.01 -0.00990202 -6.99885e-05 -2.57192e-05 1.90293
0.55 0.01 -0.0097651 -7.17279e-05 -2.53649e-05 1.87652
0.555 0.01 -0.00962504 -7.33757e-05 -2.50022e-05 1.84953
0.56 0.01 -0.00948201 -7.49303e-05 -2.46315e-05 1.822
0.565 0.01 -0.00933619 -7.63908e-05 -2.42532e-05 1.79395
0.57 0.01 -0.00918775 -7.77561e-05 -2.38678e-05 1.76542
0.575 0.01 -0.00903688 -7.90258e-05 -2.34759e-05 1.73645
0.58 0.01 -0.00888376 -8.01995e-05 -2.30779e-05 1.70706
0.585 0.01 -0.00872855 -8.12772e-05 -2.26742e-05 1.67729
0.59 0.01 -0.00857145 -8.22592e-05 -2.22653e-05 1.64717
0.595 0.01 -0.00841263 -8.3146e-05 -2.18518e-05 1.61675
0.6 0.01 -0.00825226 -8.39382e-05 -2.14341e-05 1.58603
0.605 0.01 -0.00809053 -8.4637e-05 -2.10127e-05 1.55507
0.61 0.01 -0.00792761 -8.52434e-05 -2.0588e-05 1.5239
0.615 0.01 -0.00776366 -8.57588e-05 -2.01605e-05 1.49254
0.62 0.01 -0.00759885 -8.61847e-05 -1.97306e-05 1.46102
0.625 0.01 -0.00743336 -8.65229e-05 -1.92989e-05 1.42938
0.63 0.01 -0.00726734 -8.67753e-05 -1.88656e-05 1.39765
0.635 0.01 -0.00710094 -8.69438e-05 -1.84313e-05 1.36585
0.64 0.01 -0.00693433 -8.70305e-05 -1.79964e-05 1.33402
0.645 0.01 -0.00676766 -8.70378e-05 -1.75612e-05 1.30218
0.65 0.01 -0.00660106 -8.69679e-05 -1.71262e-05 1.27036
0.655 0.01 -0.00643469 -8.68232e-05 -1.66917e-05 1.23858
0.66 0.01 -0.00626867 -8.66061e-05 -1.62581e-05 1.20688
0.665 0.01 -0.00610314 -8.63191e-05 -1.58258e-05 1.17526
0.67 0.01 -0.00593824 -8.59649e-05 -1.53951e-05 1.14377
0.675 0.01 -0.00577407 -8.55458e-05 -1.49663e-05 1.11242
0.68 0.01 -0.00561077 -8.50645e-05 -1.45398e-05 1.08124
0.685 0.01 -0.00544844 -8.45234e-05 -1.41158e-05 1.05023
0.69 0.01 -0.0052872 -8.39251e-05 -1.36946e-05 1.01944
0.695 0.01 -0.00512714 -8.32721e-05 -1.32766e-05 0.988864
0.7 0.01 -0.00496837 -8.25669e-05 -1.2862e-05 0.958536
0.705 0.01 -0.00481099 -8.18117e-05 -1.24511e-05 0.928468
0.71 0.01 -0.00465508 -8.10089e-05 -1.2044e-05 0.898679
0.715 0.01 -0.00450073 -8.01608e-05 -1.16411e-05 0.869185
0.72 0.01 -0.00434803 -7.92696e-05 -1.12425e-05 0.84
0.725 0.01 -0.00419706 -7.83374e-05 -1.08485e-05 0.811141
0.73 0.01 -0.00404789 -7.73661e-05 -1.04592e-05 0.78262
0.735 0.01 -0.00390059 -7.63578e-05 -1.00749e-05 0.754453
0.74 0.01 -0.00375523 -7.53143e-05 -9.69568e-06 0.726651
0.745 0.01 -0.00361187 -7.42372e-05 -9.32179e-06 0.699227
0.75 0.01 -0.00347059 -7.31283e-05 -8.95336e-06 0.672193
0.755 0.01 -0.00333143 -7.19891e-05 -8.59056e-06 0.645559
0.76 0.01 -0.00319445 -7.0821e-05 -8.23352e-06 0.619337
0.765 0.01 -0.00305971 -6.96253e-05 -7.88239e-06 0.593538
0.77 0.01 -0.00292726 -6.84033e-05 -7.5373e-06 0.56817
0.775 0.01 -0.00279715 -6.71561e-05 -7.19839e-06 0.543243
0.78 0.01 -0.00266943 -6.58848e-05 -6.86577e-06 0.518767
0.785 0.01 -0.00254413 -6.45902e-05 -6.53957e-06 0.49475
0.79 0.01 -0.00242131 -6.32731e-05 -6.2199e-06 0.4712
0.795 0.01 -0.00230101 -6.19344e-05 -5.90686e-06 0.448127
0.8 0.01 -0.00218327 -6.05747e-05 -5.60057e-06 0.425538
0.805 0.01 -0.00206813 -5.91945e-05 -5.30113e-06 0.403441
0.81 0.01 -0.00195563 -5.77943e-05 -5.00864e-06 0.381844
0.815 0.01 -0.00184581 -5.63744e-05 -4.72319e-06 0.360754
0.82 0.01 -0.0017387 -5.49352e-05 -4.4449e-06 0.340179
0.825 0.01 -0.00163435 -5.34769e-05 -4.17385e-06 0.320126
0.83 0.01 -0.00153279 -5.19996e-05 -3.91013e-06 0.300603
0.835 0.01 -0.00143406 -5.05034e-05 -3.65385e-06 0.281617
0.84 0.01 -0.00133819 -4.89882e-05 -3.4051e-06 0.263175
0.845 0.01 -0.00124523 -4.74541e-05 -3.16397e-06 0.245284
0.85 0.01 -0.00115521 -4.59007e-05 -2.93055e-06 0.227953
0.855 0.01 -0.00106817 -4.4328e-05 -2.70496e-06 0.211189
0.86 0.01 -0.000984148 -4.27356e-05 -2.48727e-06 0.194998
0.865 0.01 -0.000903181 -4.1123e-05 -2.27759e-06 0.179389
0.87 0.01 -0.000825311 -3.949e-05 -2.07603e-06 0.16437
0.875 0.01 -0.000750577 -3.78359e-05 -1.88269e-06 0.149949
0.88 0.01 -0.000679021 -3.61602e-05 -1.69767e-06 0.136132
0.885 0.01 -0.000610686 -3.44623e-05 -1.52108e-06 0.12293
0.89 0.01 -0.000545615 -3.27413e-05 -1.35303e-06 0.11035
0.895 0.01 -0.000483853 -3.09965e-05 -1.19366e-06 0.0984
0.9 0.01 -0.000425446 -2.92271e-05 -1.04306e-06 0.0870896
0.905 0.01 -0.00037044 -2.74322e-05 -9.01377e-07 0.0764272
0.91 0.01 -0.000318884 -2.56109e-05 -7.68732e-07 0.0664217
0.915 0.01 -0.000270826 -2.37625e-05 -6.4526e-07 0.0570818
0.92 0.01 -0.000226316 -2.18861e-05 -5.311e-07 0.0484165
0.925 0.01 -0.000185404 -1.99812e-05 -4.26392e-07 0.040434
0.93 0.01 -0.000148139 -1.80477e-05 -3.31281e-07 0.0331427
0.935 0.01 -0.000114568 -1.6086e-05 -2.45909e-07 0.0265496
0.94 0.01 -8.47349e-05 -1.40973e-05 -1.70415e-07 0.0206609
0.945 0.01 -5.86769e-05 -1.20843e-05 -1.04931e-07 0.015481
0.95 0.01 -3.64224e-05 -1.00517e-05 -4.95681e-08 0.0110116
0.955 0.01 -1.79845e-05 -8.00735e-06 -4.4105e-09 0.00725039
0.96 0.01 -3.35375e-06 -5.96424e-06 3.05084e-08 0.00418977
0.965 0.01 7.51381e-06 -3.94287e-06 5.52342e-08 0.00181396
0.97 0.01 1.47131e-05 -1.97595e-06 6.99388e-08 9.57087e-05
0.975 0.01 1.84156e-05 -1.15817e-07 7.49949e-08 -0.00100858
0.98 0.01 1.89068e-05 1.55305e-06 7.10977e-08 -0.00156554
0.985 0.01 1.66425e-05 2.89323e-06 5.94648e-08 -0.00167319
0.99 0.01 1.23286e-05 3.68369e-06 4.21655e-08 -0.0014687
0.995 0.01 7.02679e-06 3.59345e-06 2.26279e-08 -0.00112613
1 0.01 2.25886e-06 2.26279e-06 6.23094e-09 -0.000811716
0 0.015 0 0 -0.00180709 0
0.005 0.015 0 0 0 -256.036
0.01 0.015 -0.152638 0.184486 -0.00179955 -79.3539
0.015 0.015 -0.205656 -0.0242636 -0.00184486 -16.6704
0.02 0.015 -0.203717 -0.0577628 -0.00155692 2.3916
0.025 0.015 -0.183709 -0.0522322 -0.00126723 8.08513
0.03 0.015 -0.160592 -0.0410809 -0.00103459 9.46137
0.035 0.015 -0.139337 -0.0314468 -0.000856418 9.36952
0.04 0.015 -0.121151 -0.0241907 -0.000720126 8.79109
0.045 0.015 -0.105966 -0.0188815 -0.00061451 8.08538
0.05 0.015 -0.093363 -0.0149799 -0.00053131 7.38628
0.055 0.015 -0.0828838 -0.012068 -0.000464711 6.74126
0.06 0.015 -0.0741272 -0.00985447 -0.00041063 6.16361
0.065 0.015 -0.0667657 -0.00814155 -0.000366166 5.65313
0.07 0.015 -0.0605386 -0.00679423 -0.000329214 5.2046
0.075 0.015 -0.0552398 -0.00571903 -0.000298223 4.81132
0.08 0.015 -0.0507063 -0.00484999 -0.000272024 4.46653
0.085 0.015 -0.0468081 -0.00413964 -0.000249723 4.16401
0.09 0.015 -0.0434411 -0.00355316 -0.000230627 3.89822
0.095 0.015 -0.0405215 -0.00306462 -0.000214191 3.66437
0.1 0.015 -0.0379809 -0.00265435 -0.00019998 3.4583
0.105 0.015 -0.0357633 -0.00230729 -0.000187646 3.27647
0.11 0.015 -0.0338226 -0.00201171 -0.000176907 3.11581
0.115 0.015 -0.0321206 -0.00175843 -0.000167529 2.97372
0.12 0.015 -0.0306252 -0.00154014 -0.000159322 2.84795
0.125 0.015 -0.0293097 -0.00135102 -0.000152127 2.73657
0.13 0.015 -0.0281514 -0.00118635 -0.000145811 2.6379
0.135 0.015 -0.027131 -0.00104233 -0.000140263 2.55052
0.14 0.015 -0.0262321 -0.000915828 -0.000135387 2.47316
0.145 0.015 -0.0254406 -0.000804273 -0.000131104 2.40474
0.15 0.015 -0.0247444 -0.000705541 -0.000127344 2.34431
0.155 0.015 -0.024133 -0.000617862 -0.000124048 2.29104
0.16 0.015 -0.0235973 -0.000539756 -0.000121165 2.24418
0.165 0.015 -0.0231293 -0.000469981 -0.00011865 2.2031
0.17 0.015 -0.022722 -0.000407486 -0.000116465 2.16723
0.175 0.015 -0.0223693 -0.000351383 -0.000114575 2.13605
0.18 0.015 -0.0220658 -0.000300914 -0.000112951 2.10912
0.185 0.015 -0.0218066 -0.000255433 -0.000111566 2.08602
0.19 0.015 -0.0215875 -0.000214385 -0.000110396 2.06641
0.195 0.015 -0.0214046 -0.000177294 -0.000109421 2.04994
0.2 0.015 -0.0212545 -0.000143748 -0.000108623 2.03632
0.205 0.015 -0.0211341 -0.00011339 -0.000107984 2.0253
0.21 0.015 -0.0210406 -8.59131e-05 -0.000107489 2.01661
0.215 0.015 -0.0209714 -6.10472e-05 -0.000107125 2.01005
0.22 0.015 -0.0209242 -3.85582e-05 -0.000106878 2.00541
0.225 0.015 -0.020897 -1.8241e-05 -0.000106739 2.00251
0.23 0.015 -0.0208877 8.42637e-08 -0.000106696 2.00116
0.235 0.015 -0.0208946 1.65755e-05 -0.00010674 2.00122
0.24 0.015 -0.020916 3.1372e-05 -0.000106862 2.00253
0.245 0.015 -0.0209504 4.45967e-05 -0.000107054 2.00496
0.25 0.015 -0.0209963 5.63584e-05 -0.000107308 2.00838
0.255 0.015 -0.0210525 6.67539e-05 -0.000107617 2.01268
0.26 0.015 -0.0211176 7.58693e-05 -0.000107976 2.01773
0.265 0.015 -0.0211906 8.37817e-05 -0.000108376 2.02344
0.27 0.015 -0.0212703 9.05602e-05 -0.000108814 2.0297
0.275 0.015 -0.0213556 9.62671e-05 -0.000109282 2.03643
0.28 0.015 -0.0214456 0.000100959 -0.000109777 2.04353
0.285 0.015 -0.0215394 0.000104686 -0.000110292 2.05092
0.29 0.015 -0.021636 0.000107496 -0.000110824 2.05852
0.295 0.015 -0.0217346 0.000109432 -0.000111368 2.06626
0.3 0.015 -0.0218343 0.000110534 -0.000111919 2.07406
0.305 0.015 -0.0219346 0.000110838 -0.000112473 2.08185
0.31 0.015 -0.0220345 0.00011038 -0.000113028 2.08957
0.315 0.015 -0.0221334 0.000109192 -0.000113578 2.09716
0.32 0.015 -0.0222306 0.000107306 -0.00011412 2.10456
0.325 0.015 -0.0223255 0.000104752 -0.000114652 2.11171
0.33 0.015 -0.0224174 0.000101558 -0.000115169 2.11855
0.335 0.015 -0.0225059 9.7753e-05 -0.000115668 2.12505
0.34 0.015 -0.0225902 9.33637e-05 -0.000116147 2.13115
0.345 0.015 -0.0226699 8.84172e-05 -0.000116602 2.13679
0.35 0.015 -0.0227445 8.29399e-05 -0.000117032 2.14195
0.355 0.015 -0.0228136 7.69582e-05 -0.000117433 2.14658
0.36 0.015 -0.0228765 7.04981e-05 -0.000117802 2.15064
0.365 0.015 -0.022933 6.35856e-05 -0.000118139 2.1541
0.37 0.015 -0.0229825 5.62469e-05 -0.000118439 2.15692
0.375 0.015 -0.0230248 4.8508e-05 -0.000118702 2.15906
0.38 0.015 -0.0230595 4.03951e-05 -0.000118925 2.16051
0.385 0.015 -0.0230862 3.19343e-05 -0.000119107 2.16123
0.39 0.015 -0.0231046 2.31521e-05 -0.000119246 2.16121
0.395 0.015 -0.0231145 1.40749e-05 -0.00011934 2.16041
0.4 0.015 -0.0231157 4.72923e-06 -0.000119388 2.15882
0.405 0.015 -0.0231077 -4.85826e-06 -0.000119388 2.15642
0.41 0.015 -0.0230906 -1.46609e-05 -0.00011934 2.1532
0.415 0.015 -0.0230641 -2.46521e-05 -0.000119243 2.14914
0.42 0.015 -0.023028 -3.48052e-05 -0.000119095 2.14423
0.425 0.015 -0.0229822 -4.50935e-05 -0.000118896 2.13846
0.43 0.015 -0.0229267 -5.54909e-05 -0.000118645 2.13183
0.435 0.015 -0.0228612 -6.59708e-05 -0.000118342 2.12434
0.44 0.015 -0.0227859 -7.65075e-05 -0.000117987 2.11597
0.445 0.015 -0.0227006 -8.70752e-05 -0.000117579 2.10673
0.45 0.015 -0.0226054 -9.76486e-05 -0.000117117 2.09663
0.455 0.015 -0.0225002 -0.000108203 -0.000116603 2.08566
0.46 0.015 -0.0223851 -0.000118713 -0.000116037 2.07383
0.465 0.015 -0.0222602 -0.000129156 -0.000115418 2.06115
0.47 0.015 -0.0221256 -0.000139509 -0.000114746 2.04762
0.475 0.015 -0.0219813 -0.000149748 -0.000114024 2.03327
0.48 0.015 -0.0218274 -0.000159853 -0.00011325 2.0181
0.485 0.015 -0.0216643 -0.000169801 -0.000112427 2.00212
0.49 0.015 -0.0214918 -0.000179573 -0.000111554 1.98535
0.495 0.015 -0.0213104 -0.00018915 -0.000110632 1.96781
0.5 0.015 -0.0211201 -0.000198513 -0.000109663 1.94952
0.505 0.015 -0.0209213 -0.000207645 -0.000108648 1.93049
0.51 0.015 -0.020714 -0.000216529 -0.000107588 1.91075
0.515 0.015 -0.0204986 -0.000225151 -0.000106484 1.89032
0.52 0.015 -0.0202753 -0.000233496 -0.000105338 1.86923
0.525 0.015 -0.0200444 -0.000241551 -0.000104151 1.84749
0.53 0.015 -0.0198061 -0.000249305 -0.000102924 1.82513
0.535 0.015 -0.0195608 -0.000256746 -0.000101659 1.80217
0.54 0.015 -0.0193088 -0.000263865 -0.000100358 1.77865
0.545 0.015 -0.0190503 -0.000270653 -9.90214e-05 1.75459
0.55 0.015 -0.0187857 -0.000277103 -9.76522e-05 1.73002
0.555 0.015 -0.0185153 -0.00028321 -9.62515e-05 1.70496
0.56 0.015 -0.0182394 -0.000288967 -9.48212e-05 1.67945
0.565 0.015 -0.0179584 -0.00029437 -9.3363e-05 1.6535
0.57 0.015 -0.0176726 -0.000299418 -9.18786e-05 1.62716
0.575 0.015 -0.0173822 -0.000304108 -9.03699e-05 1.60044
0.58 0.015 -0.0170878 -0.000308439 -8.88386e-05 1.57339
0.585 0.015 -0.0167895 -0.000312411 -8.72866e-05 1.54601
0.59 0.015 -0.0164877 -0.000316027 -8.57155e-05 1.51836
0.595 0.015 -0.0161828 -0.000319287 -8.41273e-05 1.49044
0.6 0.015 -0.015875 -0.000322194 -8.25236e-05 1.46229
0.605 0.015 -0.0155648 -0.000324753 -8.09063e-05 1.43395
0.61 0.015 -0.0152524 -0.000326968 -7.9277e-05 1.40542
0.615 0.015 -0.0149382 -0.000328844 -7.76375e-05 1.37675
0.62 0.015 -0.0146224 -0.000330387 -7.59894e-05 1.34796
0.625 0.015 -0.0143054 -0.000331603 -7.43344e-05 1.31907
0.63 0.015 -0.0139874 -0.000332499 -7.26742e-05 1.29012
0.635 0.015 -0.0136688 -0.000333083 -7.10102e-05 1.26111
0.64 0.015 -0.0133499 -0.000333363 -6.93441e-05 1.23209
0.645 0.015 -0.0130309 -0.000333347 -6.76773e-05 1.20307
0.65 0.015 -0.012712 -0.000333043 -6.60113e-05 1.17408
0.655 0.015 -0.0123937 -0.00033246 -6.43475e-05 1.14513
0.66 0.015 -0.012076 -0.000331608 -6.26873e-05 1.11625
0.665 0.015 -0.0117593 -0.000330495 -6.10321e-05 1.08747
0.67 0.015 -0.0114438 -0.000329132 -5.9383e-05 1.05879
0.675 0.015 -0.0111298 -0.000327526 -5.77413e-05 1.03025
0.68 0.015 -0.0108174 -0.000325688 -5.61082e-05 1.00185
0.685 0.015 -0.0105068 -0.000323627 -5.44849e-05 0.973624
0.69 0.015 -0.0101983 -0.000321352 -5.28724e-05 0.945581
0.695 0.015 -0.00989212 -0.000318873 -5.12718e-05 0.91774
0.7 0.015 -0.00958835 -0.000316197 -4.96841e-05 0.890116
0.705 0.015 -0.0092872 -0.000313335 -4.81103e-05 0.862725
0.71 0.015 -0.00898884 -0.000310294 -4.65512e-05 0.835582
0.715 0.015 -0.00869345 -0.000307082 -4.50077e-05 0.808702
0.72 0.015 -0.00840117 -0.000303709 -4.34807e-05 0.782097
0.725 0.015 -0.00811216 -0.000300181 -4.19709e-05 0.75578
0.73 0.015 -0.00782655 -0.000296505 -4.04792e-05 0.729765
0.735 0.015 -0.00754448 -0.00029269 -3.90061e-05 0.704062
0.74 0.015 -0.00726608 -0.000288741 -3.75525e-05 0.678684
0.745 0.015 -0.00699148 -0.000284666 -3.6119e-05 0.653641
0.75 0.015 -0.00672079 -0.000280469 -3.47061e-05 0.628944
0.755 0.015 -0.00645411 -0.000276157 -3.33145e-05 0.604602
0.76 0.015 -0.00619157 -0.000271734 -3.19447e-05 0.580626
0.765 0.015 -0.00593326 -0.000267206 -3.05973e-05 0.557025
0.77 0.015 -0.00567928 -0.000262578 -2.92728e-05 0.533807
0.775 0.015 -0.00542973 -0.000257852 -2.79717e-05 0.510982
0.78 0.015 -0.00518469 -0.000253034 -2.66944e-05 0.488557
0.785 0.015 -0.00494426 -0.000248125 -2.54414e-05 0.466542
0.79 0.015 -0.00470851 -0.00024313 -2.42132e-05 0.444943
0.795 0.015 -0.00447754 -0.000238051 -2.30102e-05 0.423769
0.8 0.015 -0.00425141 -0.00023289 -2.18328e-05 0.403027
0.805 0.015 -0.00403022 -0.000227649 -2.06814e-05 0.382724
0.81 0.015 -0.00381404 -0.00022233 -1.95564e-05 0.362868