Title=" Lid Driven Flow"
VARIABLES="X","Y","U","V","psi","xi"
ZONE T= "BOX", I= 201, J=201, F=POINT
0 0 0 0 0.0032033 0
0.005 0 0 0 0 0
0.01 0 0 0 0 0
0.015 0 0 0 0 161.891
0.02 0 0 0 0 176.122
0.025 0 0 0 0 155.601
0.03 0 0 0 0 133.209
0.035 0 0 0 0 115.687
0.04 0 0 0 0 102.832
0.045 0 0 0 0 93.2981
0.05 0 0 0 0 85.9756
0.055 0 0 0 0 80.1315
0.06 0 0 0 0 75.3072
0.065 0 0 0 0 71.214
0.07 0 0 0 0 67.664
0.075 0 0 0 0 64.5309
0.08 0 0 0 0 61.7263
0.085 0 0 0 0 59.1867
0.09 0 0 0 0 56.8654
0.095 0 0 0 0 54.7272
0.1 0 0 0 0 52.7451
0.105 0 0 0 0 50.8982
0.11 0 0 0 0 49.1699
0.115 0 0 0 0 47.5468
0.12 0 0 0 0 46.0179
0.125 0 0 0 0 44.5742
0.13 0 0 0 0 43.2082
0.135 0 0 0 0 41.9134
0.14 0 0 0 0 40.6841
0.145 0 0 0 0 39.5155
0.15 0 0 0 0 38.4031
0.155 0 0 0 0 37.3432
0.16 0 0 0 0 36.3321
0.165 0 0 0 0 35.3667
0.17 0 0 0 0 34.444
0.175 0 0 0 0 33.5613
0.18 0 0 0 0 32.7161
0.185 0 0 0 0 31.9059
0.19 0 0 0 0 31.1285
0.195 0 0 0 0 30.3819
0.2 0 0 0 0 29.6642
0.205 0 0 0 0 28.9733
0.21 0 0 0 0 28.3077
0.215 0 0 0 0 27.6656
0.22 0 0 0 0 27.0455
0.225 0 0 0 0 26.446
0.23 0 0 0 0 25.8655
0.235 0 0 0 0 25.3029
0.24 0 0 0 0 24.7568
0.245 0 0 0 0 24.2261
0.25 0 0 0 0 23.7098
0.255 0 0 0 0 23.2066
0.26 0 0 0 0 22.7157
0.265 0 0 0 0 22.2362
0.27 0 0 0 0 21.7672
0.275 0 0 0 0 21.3078
0.28 0 0 0 0 20.8573
0.285 0 0 0 0 20.415
0.29 0 0 0 0 19.9802
0.295 0 0 0 0 19.5524
0.3 0 0 0 0 19.1309
0.305 0 0 0 0 18.7153
0.31 0 0 0 0 18.305
0.315 0 0 0 0 17.8996
0.32 0 0 0 0 17.4987
0.325 0 0 0 0 17.1019
0.33 0 0 0 0 16.709
0.335 0 0 0 0 16.3195
0.34 0 0 0 0 15.9333
0.345 0 0 0 0 15.5502
0.35 0 0 0 0 15.1698
0.355 0 0 0 0 14.7921
0.36 0 0 0 0 14.417
0.365 0 0 0 0 14.0443
0.37 0 0 0 0 13.6739
0.375 0 0 0 0 13.3057
0.38 0 0 0 0 12.9399
0.385 0 0 0 0 12.5763
0.39 0 0 0 0 12.215
0.395 0 0 0 0 11.8559
0.4 0 0 0 0 11.4993
0.405 0 0 0 0 11.1451
0.41 0 0 0 0 10.7935
0.415 0 0 0 0 10.4445
0.42 0 0 0 0 10.0983
0.425 0 0 0 0 9.75511
0.43 0 0 0 0 9.415
0.435 0 0 0 0 9.07818
0.44 0 0 0 0 8.74482
0.445 0 0 0 0 8.41511
0.45 0 0 0 0 8.08926
0.455 0 0 0 0 7.76747
0.46 0 0 0 0 7.44995
0.465 0 0 0 0 7.13692
0.47 0 0 0 0 6.82858
0.475 0 0 0 0 6.52515
0.48 0 0 0 0 6.22684
0.485 0 0 0 0 5.93387
0.49 0 0 0 0 5.64644
0.495 0 0 0 0 5.36474
0.5 0 0 0 0 5.08897
0.505 0 0 0 0 4.81931
0.51 0 0 0 0 4.55593
0.515 0 0 0 0 4.29899
0.52 0 0 0 0 4.04865
0.525 0 0 0 0 3.80503
0.53 0 0 0 0 3.56826
0.535 0 0 0 0 3.33845
0.54 0 0 0 0 3.11569
0.545 0 0 0 0 2.90005
0.55 0 0 0 0 2.69159
0.555 0 0 0 0 2.49035
0.56 0 0 0 0 2.29637
0.565 0 0 0 0 2.10963
0.57 0 0 0 0 1.93015
0.575 0 0 0 0 1.75789
0.58 0 0 0 0 1.59281
0.585 0 0 0 0 1.43486
0.59 0 0 0 0 1.28395
0.595 0 0 0 0 1.14002
0.6 0 0 0 0 1.00295
0.605 0 0 0 0 0.872632
0.61 0 0 0 0 0.748942
0.615 0 0 0 0 0.631743
0.62 0 0 0 0 0.520889
0.625 0 0 0 0 0.416224
0.63 0 0 0 0 0.317583
0.635 0 0 0 0 0.224796
0.64 0 0 0 0 0.137686
0.645 0 0 0 0 0.0560696
0.65 0 0 0 0 -0.0202389
0.655 0 0 0 0 -0.0914298
0.66 0 0 0 0 -0.157696
0.665 0 0 0 0 -0.219231
0.67 0 0 0 0 -0.276231
0.675 0 0 0 0 -0.328893
0.68 0 0 0 0 -0.377412
0.685 0 0 0 0 -0.421984
0.69 0 0 0 0 -0.462805
0.695 0 0 0 0 -0.500068
0.7 0 0 0 0 -0.533968
0.705 0 0 0 0 -0.564694
0.71 0 0 0 0 -0.592437
0.715 0 0 0 0 -0.617383
0.72 0 0 0 0 -0.639717
0.725 0 0 0 0 -0.65962
0.73 0 0 0 0 -0.67727
0.735 0 0 0 0 -0.692839
0.74 0 0 0 0 -0.706493
0.745 0 0 0 0 -0.718395
0.75 0 0 0 0 -0.728696
0.755 0 0 0 0 -0.73754
0.76 0 0 0 0 -0.745062
0.765 0 0 0 0 -0.751384
0.77 0 0 0 0 -0.756616
0.775 0 0 0 0 -0.760855
0.78 0 0 0 0 -0.764182
0.785 0 0 0 0 -0.766663
0.79 0 0 0 0 -0.768346
0.795 0 0 0 0 -0.769266
0.8 0 0 0 0 -0.769438
0.805 0 0 0 0 -0.76886
0.81 0 0 0 0 -0.767515
0.815 0 0 0 0 -0.765371
0.82 0 0 0 0 -0.762379
0.825 0 0 0 0 -0.75848
0.83 0 0 0 0 -0.7536
0.835 0 0 0 0 -0.747658
0.84 0 0 0 0 -0.740565
0.845 0 0 0 0 -0.732227
0.85 0 0 0 0 -0.722549
0.855 0 0 0 0 -0.711436
0.86 0 0 0 0 -0.698797
0.865 0 0 0 0 -0.684546
0.87 0 0 0 0 -0.668608
0.875 0 0 0 0 -0.650923
0.88 0 0 0 0 -0.631442
0.885 0 0 0 0 -0.610141
0.89 0 0 0 0 -0.587012
0.895 0 0 0 0 -0.562074
0.9 0 0 0 0 -0.535374
0.905 0 0 0 0 -0.506985
0.91 0 0 0 0 -0.477013
0.915 0 0 0 0 -0.445597
0.92 0 0 0 0 -0.412908
0.925 0 0 0 0 -0.379154
0.93 0 0 0 0 -0.344578
0.935 0 0 0 0 -0.30946
0.94 0 0 0 0 -0.274117
0.945 0 0 0 0 -0.238901
0.95 0 0 0 0 -0.204204
0.955 0 0 0 0 -0.170452
0.96 0 0 0 0 -0.138111
0.965 0 0 0 0 -0.10768
0.97 0 0 0 0 -0.0796971
0.975 0 0 0 0 -0.0547297
0.98 0 0 0 0 -0.0333715
0.985 0 0 0 0 -0.0162212
0.99 0 0 0 0 -0.00383753
0.995 0 0 0 0 0.00336892
1 0 0 0 0 0.00539032
0 0.005 0 0 0 0
0.005 0.005 0 0 0 0
0.01 0.005 0 0 0 73.7281
0.015 0.005 0 0 0 62.0683
0.02 0.005 0 0 0 45.7206
0.025 0.005 0 0 0 33.9541
0.03 0.005 0 0 0 26.0566
0.035 0.005 0 0 0 20.6273
0.04 0.005 0 0 0 16.7244
0.045 0.005 0 0 0 13.797
0.05 0.005 0 0 0 11.5254
0.055 0.005 0 0 0 9.71823
0.06 0.005 0 0 0 8.25512
0.065 0.005 0 0 0 7.05603
0.07 0.005 0 0 0 6.06513
0.075 0.005 0 0 0 5.24165
0.08 0.005 0 0 0 4.55481
0.085 0.005 0 0 0 3.98062
0.09 0.005 0 0 0 3.50004
0.095 0.005 0 0 0 3.09769
0.1 0.005 0 0 0 2.761
0.105 0.005 0 0 0 2.47963
0.11 0.005 0 0 0 2.24499
0.115 0.005 0 0 0 2.04996
0.12 0.005 0 0 0 1.88858
0.125 0.005 0 0 0 1.75587
0.13 0.005 0 0 0 1.64768
0.135 0.005 0 0 0 1.56051
0.14 0.005 0 0 0 1.49143
0.145 0.005 0 0 0 1.43799
0.15 0.005 0 0 0 1.39814
0.155 0.005 0 0 0 1.37015
0.16 0.005 0 0 0 1.35257
0.165 0.005 0 0 0 1.34418
0.17 0.005 0 0 0 1.34397
0.175 0.005 0 0 0 1.35108
0.18 0.005 0 0 0 1.36478
0.185 0.005 0 0 0 1.38448
0.19 0.005 0 0 0 1.40967
0.195 0.005 0 0 0 1.43991
0.2 0.005 0 0 0 1.47484
0.205 0.005 0 0 0 1.51414
0.21 0.005 0 0 0 1.55757
0.215 0.005 0 0 0 1.60488
0.22 0.005 0 0 0 1.65588
0.225 0.005 0 0 0 1.71039
0.23 0.005 0 0 0 1.76825
0.235 0.005 0 0 0 1.82933
0.24 0.005 0 0 0 1.8935
0.245 0.005 0 0 0 1.96064
0.25 0.005 0 0 0 2.03062
0.255 0.005 0 0 0 2.10335
0.26 0.005 0 0 0 2.17872
0.265 0.005 0 0 0 2.25661
0.27 0.005 0 0 0 2.33693
0.275 0.005 0 0 0 2.41957
0.28 0.005 0 0 0 2.50441
0.285 0.005 0 0 0 2.59135
0.29 0.005 0 0 0 2.68026
0.295 0.005 0 0 0 2.77104
0.3 0.005 0 0 0 2.86356
0.305 0.005 0 0 0 2.95769
0.31 0.005 0 0 0 3.05329
0.315 0.005 0 0 0 3.15023
0.32 0.005 0 0 0 3.24838
0.325 0.005 0 0 0 3.34757
0.33 0.005 0 0 0 3.44767
0.335 0.005 0 0 0 3.5485
0.34 0.005 0 0 0 3.64991
0.345 0.005 0 0 0 3.75174
0.35 0.005 0 0 0 3.8538
0.355 0.005 0 0 0 3.95593
0.36 0.005 0 0 0 4.05795
0.365 0.005 0 0 0 4.15966
0.37 0.005 0 0 0 4.26088
0.375 0.005 0 0 0 4.36142
0.38 0.005 0 0 0 4.46109
0.385 0.005 0 0 0 4.55969
0.39 0.005 0 0 0 4.65701
0.395 0.005 0 0 0 4.75287
0.4 0.005 0 0 0 4.84705
0.405 0.005 0 0 0 4.93936
0.41 0.005 0 0 0 5.02958
0.415 0.005 0 0 0 5.11753
0.42 0.005 0 0 0 5.20299
0.425 0.005 0 0 0 5.28576
0.43 0.005 0 0 0 5.36565
0.435 0.005 0 0 0 5.44246
0.44 0.005 0 0 0 5.51598
0.445 0.005 0 0 0 5.58605
0.45 0.005 0 0 0 5.65245
0.455 0.005 0 0 0 5.71502
0.46 0.005 0 0 0 5.77357
0.465 0.005 0 0 0 5.82794
0.47 0.005 0 0 0 5.87795
0.475 0.005 0 0 0 5.92345
0.48 0.005 0 0 0 5.96429
0.485 0.005 0 0 0 6.00033
0.49 0.005 0 0 0 6.03142
0.495 0.005 0 0 0 6.05745
0.5 0.005 0 0 0 6.07829
0.505 0.005 0 0 0 6.09385
0.51 0.005 0 0 0 6.10403
0.515 0.005 0 0 0 6.10874
0.52 0.005 0 0 0 6.10791
0.525 0.005 0 0 0 6.10149
0.53 0.005 0 0 0 6.08942
0.535 0.005 0 0 0 6.07167
0.54 0.005 0 0 0 6.04822
0.545 0.005 0 0 0 6.01906
0.55 0.005 0 0 0 5.9842
0.555 0.005 0 0 0 5.94367
0.56 0.005 0 0 0 5.89749
0.565 0.005 0 0 0 5.84572
0.57 0.005 0 0 0 5.78843
0.575 0.005 0 0 0 5.72568
0.58 0.005 0 0 0 5.65759
0.585 0.005 0 0 0 5.58426
0.59 0.005 0 0 0 5.5058
0.595 0.005 0 0 0 5.42238
0.6 0.005 0 0 0 5.33413
0.605 0.005 0 0 0 5.24122
0.61 0.005 0 0 0 5.14384
0.615 0.005 0 0 0 5.04219
0.62 0.005 0 0 0 4.93646
0.625 0.005 0 0 0 4.82688
0.63 0.005 0 0 0 4.71369
0.635 0.005 0 0 0 4.59711
0.64 0.005 0 0 0 4.47741
0.645 0.005 0 0 0 4.35485
0.65 0.005 0 0 0 4.2297
0.655 0.005 0 0 0 4.10223
0.66 0.005 0 0 0 3.97272
0.665 0.005 0 0 0 3.84148
0.67 0.005 0 0 0 3.70878
0.675 0.005 0 0 0 3.57493
0.68 0.005 0 0 0 3.44023
0.685 0.005 0 0 0 3.30497
0.69 0.005 0 0 0 3.16945
0.695 0.005 0 0 0 3.03398
0.7 0.005 0 0 0 2.89884
0.705 0.005 0 0 0 2.76432
0.71 0.005 0 0 0 2.63071
0.715 0.005 0 0 0 2.4983
0.72 0.005 0 0 0 2.36734
0.725 0.005 0 0 0 2.23811
0.73 0.005 0 0 0 2.11085
0.735 0.005 0 0 0 1.98582
0.74 0.005 0 0 0 1.86323
0.745 0.005 0 0 0 1.74331
0.75 0.005 0 0 0 1.62627
0.755 0.005 0 0 0 1.5123
0.76 0.005 0 0 0 1.40157
0.765 0.005 0 0 0 1.29425
0.77 0.005 0 0 0 1.19049
0.775 0.005 0 0 0 1.09041
0.78 0.005 0 0 0 0.994131
0.785 0.005 0 0 0 0.901755
0.79 0.005 0 0 0 0.813365
0.795 0.005 0 0 0 0.729028
0.8 0.005 0 0 0 0.648795
0.805 0.005 0 0 0 0.572702
0.81 0.005 0 0 0 0.50077
0.815 0.005 0 0 0 0.433005
0.82 0.005 0 0 0 0.369398
0.825 0.005 0 0 0 0.309926
0.83 0.005 0 0 0 0.254554
0.835 0.005 0 0 0 0.203234
0.84 0.005 0 0 0 0.155907
0.845 0.005 0 0 0 0.112501
0.85 0.005 0 0 0 0.072936
0.855 0.005 0 0 0 0.0371217
0.86 0.005 0 0 0 0.00495971
0.865 0.005 0 0 0 -0.023656
0.87 0.005 0 0 0 -0.0488382
0.875 0.005 0 0 0 -0.0707055
0.88 0.005 0 0 0 -0.0893819
0.885 0.005 0 0 0 -0.104996
0.89 0.005 0 0 0 -0.117679
0.895 0.005 0 0 0 -0.127568
0.9 0.005 0 0 0 -0.134801
0.905 0.005 0 0 0 -0.139519
0.91 0.005 0 0 0 -0.141867
0.915 0.005 0 0 0 -0.141992
0.92 0.005 0 0 0 -0.140044
0.925 0.005 0 0 0 -0.136178
0.93 0.005 0 0 0 -0.130555
0.935 0.005 0 0 0 -0.123341
0.94 0.005 0 0 0 -0.114713
0.945 0.005 0 0 0 -0.10486
0.95 0.005 0 0 0 -0.0939866
0.955 0.005 0 0 0 -0.0823193
0.96 0.005 0 0 0 -0.0701113
0.965 0.005 0 0 0 -0.0576511
0.97 0.005 0 0 0 -0.0452725
0.975 0.005 0 0 0 -0.0333659
0.98 0.005 0 0 0 -0.0223917
0.985 0.005 0 0 0 -0.0128907
0.99 0.005 0 0 0 -0.0054775
0.995 0.005 0 0 0 -0.00077684
1 0.005 0 0 0 0.000827366
0 0.01 0 0 0.000827366 0
0.005 0.01 0 0 0 -326.272
0.01 0.01 -0.180042 0.0775854 -0.000921601 -44.4052
0.015 0.01 -0.18485 -0.0350094 -0.000775854 9.52745
0.02 0.01 -0.156362 -0.0351428 -0.000571507 19.1149
0.025 0.01 -0.127522 -0.0245799 -0.000424427 18.9893
0.03 0.01 -0.104117 -0.0166586 -0.000325708 16.8243
0.035 0.01 -0.0858957 -0.0116653 -0.000257841 14.4943
0.04 0.01 -0.0716621 -0.00853787 -0.000209055 12.4281
0.045 0.01 -0.060371 -0.00649886 -0.000172462 10.6794
0.05 0.01 -0.0512658 -0.00509842 -0.000144067 9.21322
0.055 0.01 -0.0438205 -0.00408779 -0.000121478 7.98198
0.06 0.01 -0.0376671 -0.00332774 -0.000103189 6.94372
0.065 0.01 -0.0325417 -0.00273749 -8.82004e-05 6.06472
0.07 0.01 -0.0282494 -0.00226797 -7.58141e-05 5.31835
0.075 0.01 -0.0246419 -0.0018879 -6.55206e-05 4.68341
0.08 0.01 -0.0216031 -0.00157629 -5.6935e-05 4.14275
0.085 0.01 -0.0190403 -0.00131846 -4.97577e-05 3.68233
0.09 0.01 -0.0168785 -0.00110366 -4.37505e-05 3.29048
0.095 0.01 -0.0150557 -0.000923791 -3.87211e-05 2.95741
0.1 0.01 -0.0135205 -0.000772572 -3.45125e-05 2.67485
0.105 0.01 -0.0122301 -0.000645009 -3.09953e-05 2.43577
0.11 0.01 -0.0111484 -0.000537083 -2.80624e-05 2.23417
0.115 0.01 -0.0102452 -0.000445514 -2.56245e-05 2.06496
0.12 0.01 -0.00949498 -0.000367605 -2.36072e-05 1.92375
0.125 0.01 -0.00887609 -0.000301121 -2.19484e-05 1.80682
0.13 0.01 -0.00837035 -0.000244205 -2.05959e-05 1.71097
0.135 0.01 -0.00796233 -0.000195308 -1.95063e-05 1.63348
0.14 0.01 -0.00763901 -0.000153135 -1.86428e-05 1.572
0.145 0.01 -0.00738938 -0.000116601 -1.79749e-05 1.52455
0.15 0.01 -0.00720413 -8.47972e-05 -1.74768e-05 1.48944
0.155 0.01 -0.00707537 -5.69622e-05 -1.71269e-05 1.4652
0.16 0.01 -0.00699646 -3.24569e-05 -1.69071e-05 1.45061
0.165 0.01 -0.00696177 -1.07455e-05 -1.68023e-05 1.44461
0.17 0.01 -0.00696654 8.62068e-06 -1.67996e-05 1.4463
0.175 0.01 -0.00700675 2.60175e-05 -1.68885e-05 1.45492
0.18 0.01 -0.007079 4.17591e-05 -1.70598e-05 1.46981
0.185 0.01 -0.00718039 5.61077e-05 -1.7306e-05 1.49042
0.19 0.01 -0.00730848 6.92817e-05 -1.76208e-05 1.51625
0.195 0.01 -0.00746118 8.14624e-05 -1.79988e-05 1.54691
0.2 0.01 -0.00763671 9.28001e-05 -1.84354e-05 1.58204
0.205 0.01 -0.00783354 0.000103419 -1.89268e-05 1.62133
0.21 0.01 -0.00805034 0.00011342 -1.94696e-05 1.66451
0.215 0.01 -0.00828597 0.000122886 -2.0061e-05 1.71135
0.22 0.01 -0.00853941 0.000131885 -2.06984e-05 1.76165
0.225 0.01 -0.00880978 0.000140471 -2.13798e-05 1.81521
0.23 0.01 -0.00909626 0.000148686 -2.21031e-05 1.87186
0.235 0.01 -0.00939813 0.000156564 -2.28666e-05 1.93146
0.24 0.01 -0.0097147 0.000164131 -2.36688e-05 1.99386
0.245 0.01 -0.0100453 0.000171404 -2.45079e-05 2.05893
0.25 0.01 -0.0103895 0.000178398 -2.53828e-05 2.12654
0.255 0.01 -0.0107465 0.000185121 -2.62919e-05 2.19656
0.26 0.01 -0.0111158 0.000191577 -2.7234e-05 2.26887
0.265 0.01 -0.0114969 0.000197768 -2.82077e-05 2.34336
0.27 0.01 -0.0118892 0.000203693 -2.92117e-05 2.41991
0.275 0.01 -0.0122922 0.000209347 -3.02446e-05 2.4984
0.28 0.01 -0.0127052 0.000214725 -3.13051e-05 2.5787
0.285 0.01 -0.0131277 0.000219818 -3.23918e-05 2.6607
0.29 0.01 -0.013559 0.000224619 -3.35033e-05 2.74428
0.295 0.01 -0.0139987 0.000229118 -3.4638e-05 2.82929
0.3 0.01 -0.014446 0.000233303 -3.57945e-05 2.91563
0.305 0.01 -0.0149002 0.000237163 -3.69711e-05 3.00314
0.31 0.01 -0.0153608 0.000240686 -3.81661e-05 3.0917
0.315 0.01 -0.015827 0.000243859 -3.93779e-05 3.18117
0.32 0.01 -0.0162981 0.000246671 -4.06047e-05 3.2714
0.325 0.01 -0.0167734 0.000249108 -4.18447e-05 3.36224
0.33 0.01 -0.0172521 0.000251158 -4.30958e-05 3.45355
0.335 0.01 -0.0177334 0.000252808 -4.43563e-05 3.54516
0.34 0.01 -0.0182166 0.000254046 -4.56239e-05 3.63693
0.345 0.01 -0.0187008 0.000254861 -4.68968e-05 3.72869
0.35 0.01 -0.0191851 0.00025524 -4.81726e-05 3.82028
0.355 0.01 -0.0196688 0.000255174 -4.94492e-05 3.91153
0.36 0.01 -0.0201509 0.000254652 -5.07244e-05 4.00228
0.365 0.01 -0.0206306 0.000253664 -5.19958e-05 4.09235
0.37 0.01 -0.021107 0.000252202 -5.32611e-05 4.18157
0.375 0.01 -0.0215791 0.000250258 -5.45178e-05 4.26977
0.38 0.01 -0.022046 0.000247826 -5.57637e-05 4.35677
0.385 0.01 -0.0225068 0.000244898 -5.69961e-05 4.4424
0.39 0.01 -0.0229606 0.000241471 -5.82127e-05 4.52649
0.395 0.01 -0.0234064 0.00023754 -5.94109e-05 4.60885
0.4 0.01 -0.0238433 0.000233104 -6.05882e-05 4.68932
0.405 0.01 -0.0242703 0.000228159 -6.1742e-05 4.76771
0.41 0.01 -0.0246865 0.000222707 -6.28699e-05 4.84385
0.415 0.01 -0.0250909 0.000216748 -6.39692e-05 4.91758
0.42 0.01 -0.0254827 0.000210284 -6.50374e-05 4.98873
0.425 0.01 -0.0258608 0.00020332 -6.60721e-05 5.05712
0.43 0.01 -0.0262245 0.00019586 -6.70707e-05 5.1226
0.435 0.01 -0.0265727 0.000187909 -6.80308e-05 5.185
0.44 0.01 -0.0269047 0.000179478 -6.89499e-05 5.24416
0.445 0.01 -0.0272196 0.000170573 -6.98257e-05 5.29995
0.45 0.01 -0.0275164 0.000161207 -7.06557e-05 5.3522
0.455 0.01 -0.0277945 0.00015139 -7.14378e-05 5.40078
0.46 0.01 -0.0280531 0.000141137 -7.21698e-05 5.44556
0.465 0.01 -0.0282913 0.000130462 -7.28493e-05 5.48639
0.47 0.01 -0.0285084 0.000119382 -7.34745e-05 5.52316
0.475 0.01 -0.0287039 0.000107915 -7.40433e-05 5.55575
0.48 0.01 -0.0288769 9.60794e-05 -7.45538e-05 5.58406
0.485 0.01 -0.0290269 8.38967e-05 -7.50042e-05 5.60797
0.49 0.01 -0.0291534 7.13887e-05 -7.53929e-05 5.62741
0.495 0.01 -0.0292558 5.85789e-05 -7.57182e-05 5.64227
0.5 0.01 -0.0293336 4.54922e-05 -7.59788e-05 5.65249
0.505 0.01 -0.0293864 3.21548e-05 -7.61733e-05 5.65799
0.51 0.01 -0.0294137 1.85941e-05 -7.63005e-05 5.65873
0.515 0.01 -0.0294154 4.83885e-06 -7.63594e-05 5.65465
0.52 0.01 -0.0293911 -9.08115e-06 -7.6349e-05 5.64571
0.525 0.01 -0.0293405 -2.31349e-05 -7.62687e-05 5.63189
0.53 0.01 -0.0292636 -3.72903e-05 -7.61178e-05 5.61317
0.535 0.01 -0.0291602 -5.15143e-05 -7.5896e-05 5.58955
0.54 0.01 -0.0290303 -6.57731e-05 -7.56029e-05 5.56103
0.545 0.01 -0.0288738 -8.00318e-05 -7.52384e-05 5.52762
0.55 0.01 -0.028691 -9.4255e-05 -7.48027e-05 5.48935
0.555 0.01 -0.0284819 -0.000108407 -7.4296e-05 5.44627
0.56 0.01 -0.0282468 -0.00012245 -7.37188e-05 5.39841
0.565 0.01 -0.0279859 -0.000136349 -7.30717e-05 5.34586
0.57 0.01 -0.0276996 -0.000150065 -7.23555e-05 5.28867
0.575 0.01 -0.0273882 -0.000163562 -7.15712e-05 5.22693
0.58 0.01 -0.0270524 -0.000176802 -7.072e-05 5.16074
0.585 0.01 -0.0266926 -0.000189748 -6.98034e-05 5.09021
0.59 0.01 -0.0263094 -0.000202364 -6.88227e-05 5.01545
0.595 0.01 -0.0259035 -0.000214613 -6.77799e-05 4.9366
0.6 0.01 -0.0254757 -0.00022646 -6.66768e-05 4.8538
0.605 0.01 -0.0250266 -0.00023787 -6.55154e-05 4.76719
0.61 0.01 -0.0245573 -0.000248809 -6.42982e-05 4.67694
0.615 0.01 -0.0240686 -0.000259245 -6.30275e-05 4.58322
0.62 0.01 -0.0235615 -0.000269147 -6.17059e-05 4.48621
0.625 0.01 -0.023037 -0.000278484 -6.03362e-05 4.3861
0.63 0.01 -0.0224962 -0.000287229 -5.89212e-05 4.28308
0.635 0.01 -0.0219401 -0.000295356 -5.74641e-05 4.17737
0.64 0.01 -0.02137 -0.000302841 -5.59678e-05 4.06917
0.645 0.01 -0.0207871 -0.000309661 -5.44358e-05 3.95869
0.65 0.01 -0.0201926 -0.000315797 -5.28714e-05 3.84618
0.655 0.01 -0.0195877 -0.000321231 -5.1278e-05 3.73185
0.66 0.01 -0.0189739 -0.00032595 -4.96592e-05 3.61594
0.665 0.01 -0.0183522 -0.000329941 -4.80186e-05 3.49869
0.67 0.01 -0.0177243 -0.000333194 -4.63599e-05 3.38034
0.675 0.01 -0.0170912 -0.000335704 -4.46868e-05 3.26112
0.68 0.01 -0.0164545 -0.000337467 -4.3003e-05 3.1413
0.685 0.01 -0.0158155 -0.000338482 -4.13122e-05 3.0211
0.69 0.01 -0.0151755 -0.000338752 -3.96183e-05 2.90077
0.695 0.01 -0.0145359 -0.000338283 -3.79248e-05 2.78056
0.7 0.01 -0.0138981 -0.000337083 -3.62355e-05 2.66071
0.705 0.01 -0.0132633 -0.000335163 -3.45541e-05 2.54144
0.71 0.01 -0.0126328 -0.000332538 -3.2884e-05 2.423
0.715 0.01 -0.0120079 -0.000329225 -3.12288e-05 2.3056
0.72 0.01 -0.0113899 -0.000325244 -2.95918e-05 2.18948
0.725 0.01 -0.0107799 -0.000320618 -2.79764e-05 2.07485
0.73 0.01 -0.0101791 -0.000315373 -2.63857e-05 1.96191
0.735 0.01 -0.00958863 -0.000309534 -2.48228e-05 1.85086
0.74 0.01 -0.0090095 -0.000303133 -2.32904e-05 1.7419
0.745 0.01 -0.00844272 -0.000296201 -2.17915e-05 1.63521
0.75 0.01 -0.00788924 -0.000288772 -2.03285e-05 1.53095
0.755 0.01 -0.00734995 -0.000280881 -1.89038e-05 1.4293
0.76 0.01 -0.00682566 -0.000272565 -1.75197e-05 1.33039
0.765 0.01 -0.00631712 -0.000263861 -1.61782e-05 1.23437
0.77 0.01 -0.00582503 -0.000254809 -1.48811e-05 1.14137
0.775 0.01 -0.00535 -0.000245448 -1.36301e-05 1.05149
0.78 0.01 -0.00489256 -0.000235817 -1.24267e-05 0.964844
0.785 0.01 -0.0044532 -0.000225958 -1.1272e-05 0.881515
0.79 0.01 -0.0040323 -0.000215911 -1.01671e-05 0.801582
0.795 0.01 -0.00363021 -0.000205714 -9.11286e-06 0.725107
0.8 0.01 -0.00324717 -0.000195408 -8.10994e-06 0.652142
0.805 0.01 -0.00288337 -0.000185031 -7.15878e-06 0.582725
0.81 0.01 -0.00253892 -0.000174622 -6.25963e-06 0.516883
0.815 0.01 -0.00221389 -0.000164216 -5.41256e-06 0.454629
0.82 0.01 -0.00190824 -0.000153848 -4.61746e-06 0.395966
0.825 0.01 -0.0016219 -0.000143554 -3.87406e-06 0.340884
0.83 0.01 -0.00135472 -0.000133363 -3.18192e-06 0.289362
0.835 0.01 -0.00110652 -0.000123308 -2.54042e-06 0.24137
0.84 0.01 -0.00087703 -0.000113415 -1.94882e-06 0.196867
0.845 0.01 -0.000665952 -0.000103712 -1.40625e-06 0.155801
0.85 0.01 -0.000472933 -9.42226e-05 -9.11683e-07 0.118114
0.855 0.01 -0.000297576 -8.49687e-05 -4.64003e-07 0.083736
0.86 0.01 -0.000139445 -7.59703e-05 -6.19777e-08 0.0525925
0.865 0.01 1.93414e-06 -6.72455e-05 2.95719e-07 0.0246002
0.87 0.01 0.000127068 -5.881e-05 6.10496e-07 -0.000330673
0.875 0.01 0.000236495 -5.06777e-05 8.83838e-07 -0.0222958
0.88 0.01 0.000330777 -4.28608e-05 1.11729e-06 -0.0413964
0.885 0.01 0.000410502 -3.53698e-05 1.31247e-06 -0.0577388
0.89 0.01 0.000476278 -2.82136e-05 1.47101e-06 -0.0714337
0.895 0.01 0.000528734 -2.14003e-05 1.59462e-06 -0.0825963
0.9 0.01 0.000568513 -1.49372e-05 1.68503e-06 -0.0913459
0.905 0.01 0.000596277 -8.83109e-06 1.74401e-06 -0.0978055
0.91 0.01 0.000612705 -3.08918e-06 1.77336e-06 -0.102102
0.915 0.01 0.000618493 2.28061e-06 1.77492e-06 -0.104368
0.92 0.01 0.000614355 7.26873e-06 1.75057e-06 -0.104738
0.925 0.01 0.00060103 1.18632e-05 1.70224e-06 -0.103354
0.93 0.01 0.000579288 1.60483e-05 1.63195e-06 -0.100365
0.935 0.01 0.000549932 1.98038e-05 1.54177e-06 -0.0959244
0.94 0.01 0.000513811 2.31024e-05 1.43392e-06 -0.0901985
0.945 0.01 0.000471834 2.59088e-05 1.31076e-06 -0.0833633
0.95 0.01 0.000424983 2.81764e-05 1.17484e-06 -0.0756091
0.955 0.01 0.000374333 2.98448e-05 1.029e-06 -0.0671434
0.96 0.01 0.000321079 3.08358e-05 8.76396e-07 -0.0581939
0.965 0.01 0.000266557 3.10491e-05 7.20643e-07 -0.0490122
0.97 0.01 0.000212283 3.0357e-05 5.65909e-07 -0.0398765
0.975 0.01 0.000159979 2.86012e-05 4.17075e-07 -0.0310921
0.98 0.01 0.000111604 2.55941e-05 2.79898e-07 -0.0229863
0.985 0.01 6.93394e-05 2.11429e-05 1.61134e-07 -0.015889
0.99 0.01 3.55129e-05 1.51424e-05 6.84688e-08 -0.010084
0.995 0.01 1.23027e-05 7.88109e-06 9.71039e-09 -0.00569253
1 0.01 9.69491e-07 9.71039e-07 -1.03422e-08 -0.00243097
0 0.015 0 0 -0.000775592 0
0.005 0.015 0 0 0 -255.966
0.01 0.015 -0.152849 0.18485 -0.00180042 -79.2597
0.015 0.015 -0.206222 -0.02368 -0.0018485 -16.6404
0.02 0.015 -0.20456 -0.0573271 -0.00156362 2.31412
0.025 0.015 -0.184544 -0.0522447 -0.00127522 7.92755
0.03 0.015 -0.161041 -0.0416267 -0.00104117 9.25278
0.035 0.015 -0.139039 -0.0324551 -0.000858957 9.12132
0.04 0.015 -0.119824 -0.0255247 -0.000716621 8.50122
0.045 0.015 -0.103429 -0.0203962 -0.00060371 7.74593
0.05 0.015 -0.0895304 -0.0165505 -0.000512658 6.98881
0.055 0.015 -0.0777524 -0.0135988 -0.000438205 6.27953
0.06 0.015 -0.0677548 -0.0112788 -0.00037667 5.63462
0.065 0.015 -0.059253 -0.00941765 -0.000325417 5.05714
0.07 0.015 -0.0520129 -0.00789979 -0.000282494 4.54468
0.075 0.015 -0.0458425 -0.00664634 -0.000246418 4.09269
0.08 0.015 -0.0405828 -0.0056015 -0.00021603 3.69592
0.085 0.015 -0.0361009 -0.00472453 -0.000190403 3.34907
0.09 0.015 -0.0322856 -0.00398466 -0.000168785 3.04707
0.095 0.015 -0.0290424 -0.00335801 -0.000150557 2.78519
0.1 0.015 -0.0262913 -0.00282559 -0.000135205 2.55907
0.105 0.015 -0.0239642 -0.00237207 -0.0001223 2.36477
0.11 0.015 -0.0220026 -0.00198482 -0.000111484 2.19873
0.115 0.015 -0.0203569 -0.00165341 -0.000102452 2.05774
0.12 0.015 -0.0189845 -0.00136911 -9.49496e-05 1.93896
0.125 0.015 -0.017849 -0.00112461 -8.87608e-05 1.83987
0.13 0.015 -0.0169193 -0.000913749 -8.37033e-05 1.75823
0.135 0.015 -0.0161688 -0.000731319 -7.96231e-05 1.69207
0.14 0.015 -0.0155749 -0.000572932 -7.639e-05 1.63966
0.145 0.015 -0.0151181 -0.000434873 -7.38937e-05 1.59947
0.15 0.015 -0.0147819 -0.000313999 -7.20411e-05 1.5702
0.155 0.015 -0.0145522 -0.000207654 -7.07536e-05 1.55067
0.16 0.015 -0.014417 -0.000113589 -6.99645e-05 1.53989
0.165 0.015 -0.014366 -2.99066e-05 -6.96176e-05 1.53698
0.17 0.015 -0.0143906 4.49961e-05 -6.96653e-05 1.54116
0.175 0.015 -0.0144832 0.00011247 -7.00674e-05 1.55179
0.18 0.015 -0.0146375 0.000173652 -7.07899e-05 1.56827
0.185 0.015 -0.0148481 0.000229496 -7.18038e-05 1.59012
0.19 0.015 -0.0151104 0.000280803 -7.30847e-05 1.61688
0.195 0.015 -0.0154202 0.00032824 -7.46118e-05 1.64818
0.2 0.015 -0.0157742 0.000372365 -7.6367e-05 1.68369
0.205 0.015 -0.0161695 0.000413637 -7.83353e-05 1.72309
0.21 0.015 -0.0166033 0.000452439 -8.05033e-05 1.76613
0.215 0.015 -0.0170734 0.000489081 -8.28596e-05 1.81258
0.22 0.015 -0.0175777 0.000523817 -8.53941e-05 1.86221
0.225 0.015 -0.0181146 0.000556854 -8.80977e-05 1.91484
0.23 0.015 -0.0186822 0.000588354 -9.09626e-05 1.9703
0.235 0.015 -0.0192792 0.000618445 -9.39812e-05 2.0284
0.24 0.015 -0.0199041 0.000647227 -9.7147e-05 2.08901
0.245 0.015 -0.0205556 0.000674773 -0.000100453 2.15198
0.25 0.015 -0.0212324 0.000701136 -0.000103895 2.21716
0.255 0.015 -0.0219333 0.000726351 -0.000107465 2.28442
0.26 0.015 -0.0226571 0.000750437 -0.000111158 2.35362
0.265 0.015 -0.0234027 0.000773402 -0.000114969 2.42465
0.27 0.015 -0.0241689 0.000795243 -0.000118892 2.49736
0.275 0.015 -0.0249544 0.000815947 -0.000122922 2.57163
0.28 0.015 -0.0257581 0.000835495 -0.000127052 2.64733
0.285 0.015 -0.0265789 0.000853862 -0.000131277 2.72432
0.29 0.015 -0.0274153 0.000871016 -0.00013559 2.80248
0.295 0.015 -0.0282663 0.000886925 -0.000139987 2.88167
0.3 0.015 -0.0291304 0.000901549 -0.00014446 2.96176
0.305 0.015 -0.0300064 0.000914849 -0.000149002 3.04261
0.31 0.015 -0.030893 0.000926785 -0.000153608 3.12407
0.315 0.015 -0.0317886 0.000937312 -0.00015827 3.20602
0.32 0.015 -0.0326919 0.000946388 -0.000162981 3.2883
0.325 0.015 -0.0336014 0.00095397 -0.000167734 3.37076
0.33 0.015 -0.0345156 0.000960015 -0.000172521 3.45327
0.335 0.015 -0.035433 0.000964482 -0.000177334 3.53566
0.34 0.015 -0.0363519 0.000967331 -0.000182166 3.6178
0.345 0.015 -0.0372708 0.000968522 -0.000187008 3.69952
0.35 0.015 -0.0381881 0.00096802 -0.000191851 3.78067
0.355 0.015 -0.0391021 0.00096579 -0.000196688 3.86111
0.36 0.015 -0.0400111 0.000961801 -0.00020151 3.94066
0.365 0.015 -0.0409135 0.000956023 -0.000206306 4.01919
0.37 0.015 -0.0418074 0.000948433 -0.00021107 4.09653
0.375 0.015 -0.0426911 0.000939007 -0.000215791 4.17253
0.38 0.015 -0.043563 0.000927727 -0.00022046 4.24703
0.385 0.015 -0.0444212 0.000914579 -0.000225068 4.31989
0.39 0.015 -0.0452641 0.000899553 -0.000229606 4.39095
0.395 0.015 -0.0460897 0.000882641 -0.000234064 4.46005
0.4 0.015 -0.0468965 0.000863842 -0.000238433 4.52706
0.405 0.015 -0.0476826 0.000843159 -0.000242703 4.59183
0.41 0.015 -0.0484463 0.000820598 -0.000246865 4.65421
0.415 0.015 -0.0491859 0.000796171 -0.000250909 4.71407
0.42 0.015 -0.0498997 0.000769894 -0.000254827 4.77127
0.425 0.015 -0.050586 0.000741789 -0.000258609 4.82568
0.43 0.015 -0.0512432 0.000711882 -0.000262245 4.87717
0.435 0.015 -0.0518697 0.000680204 -0.000265728 4.92562
0.44 0.015 -0.0524639 0.000646792 -0.000269048 4.9709
0.445 0.015 -0.0530244 0.000611685 -0.000272196 5.01291
0.45 0.015 -0.0535495 0.000574931 -0.000275165 5.05154
0.455 0.015 -0.0540379 0.000536581 -0.000277946 5.08668
0.46 0.015 -0.0544882 0.00049669 -0.000280531 5.11825
0.465 0.015 -0.0548992 0.000455322 -0.000282913 5.14614
0.47 0.015 -0.0552695 0.000412541 -0.000285085 5.17028
0.475 0.015 -0.055598 0.000368418 -0.000287039 5.19059
0.48 0.015 -0.0558837 0.000323031 -0.000288769 5.207
0.485 0.015 -0.0561254 0.00027646 -0.00029027 5.21945
0.49 0.015 -0.0563222 0.00022879 -0.000291535 5.22788
0.495 0.015 -0.0564732 0.000180112 -0.000292558 5.23224
0.5 0.015 -0.0565778 0.00013052 -0.000293336 5.2325
0.505 0.015 -0.0566352 8.01132e-05 -0.000293864 5.22863
0.51 0.015 -0.0566447 2.89951e-05 -0.000294138 5.22059
0.515 0.015 -0.056606 -2.27275e-05 -0.000294155 5.20839
0.52 0.015 -0.0565187 -7.49438e-05 -0.000293911 5.192
0.525 0.015 -0.0563824 -0.000127539 -0.000293406 5.17143
0.53 0.015 -0.056197 -0.000180396 -0.000292636 5.14669
0.535 0.015 -0.0559623 -0.000233394 -0.000291602 5.1178
0.54 0.015 -0.0556786 -0.000286409 -0.000290303 5.08479
0.545 0.015 -0.0553458 -0.000339316 -0.000288739 5.04769
0.55 0.015 -0.0549643 -0.000391987 -0.000286911 5.00655
0.555 0.015 -0.0545344 -0.000444291 -0.00028482 4.96142
0.56 0.015 -0.0540566 -0.000496099 -0.000282468 4.91236
0.565 0.015 -0.0535316 -0.000547279 -0.000279859 4.85945
0.57 0.015 -0.0529601 -0.000597698 -0.000276996 4.80276
0.575 0.015 -0.0523429 -0.000647225 -0.000273883 4.74237
0.58 0.015 -0.0516809 -0.000695728 -0.000270525 4.6784
0.585 0.015 -0.0509753 -0.000743076 -0.000266926 4.61092
0.59 0.015 -0.0502273 -0.000789141 -0.000263094 4.54007
0.595 0.015 -0.049438 -0.000833796 -0.000259036 4.46596
0.6 0.015 -0.048609 -0.000876916 -0.000254757 4.38871
0.605 0.015 -0.0477418 -0.000918381 -0.000250267 4.30845
0.61 0.015 -0.0468379 -0.000958073 -0.000245574 4.22534
0.615 0.015 -0.0458991 -0.00099588 -0.000240687 4.1395
0.62 0.015 -0.0449272 -0.00103169 -0.000235616 4.05111
0.625 0.015 -0.043924 -0.00106541 -0.000230371 3.96031
0.63 0.015 -0.0428916 -0.00109694 -0.000224962 3.86727
0.635 0.015 -0.041832 -0.00112618 -0.000219402 3.77215
0.64 0.015 -0.0407474 -0.00115306 -0.000213701 3.67514
0.645 0.015 -0.0396399 -0.0011775 -0.000207872 3.57641
0.65 0.015 -0.0385118 -0.00119943 -0.000201927 3.47614
0.655 0.015 -0.0373654 -0.0012188 -0.000195878 3.37452
0.66 0.015 -0.036203 -0.00123556 -0.000189739 3.27173
0.665 0.015 -0.0350272 -0.00124965 -0.000183523 3.16796
0.67 0.015 -0.0338402 -0.00126107 -0.000177243 3.06341
0.675 0.015 -0.0326446 -0.00126977 -0.000170913 2.95826
0.68 0.015 -0.0314427 -0.00127577 -0.000164546 2.85272
0.685 0.015 -0.030237 -0.00127904 -0.000158156 2.74696
0.69 0.015 -0.0290301 -0.00127961 -0.000151756 2.64119
0.695 0.015 -0.0278243 -0.00127749 -0.00014536 2.5356
0.7 0.015 -0.026622 -0.00127271 -0.000138981 2.43037
0.705 0.015 -0.0254257 -0.00126533 -0.000132633 2.32568
0.71 0.015 -0.0242376 -0.00125538 -0.000126328 2.22173
0.715 0.015 -0.0230601 -0.00124292 -0.00012008 2.1187
0.72 0.015 -0.0218954 -0.00122804 -0.000113899 2.01675
0.725 0.015 -0.0207456 -0.00121081 -0.000107799 1.91606
0.73 0.015 -0.0196129 -0.00119131 -0.000101792 1.8168
0.735 0.015 -0.0184992 -0.00116966 -9.58866e-05 1.71912
0.74 0.015 -0.0174066 -0.00114594 -9.00952e-05 1.62318
0.745 0.015 -0.0163367 -0.00112028 -8.44274e-05 1.52913
0.75 0.015 -0.0152914 -0.00109279 -7.88926e-05 1.4371
0.755 0.015 -0.0142722 -0.0010636 -7.34996e-05 1.34723
0.76 0.015 -0.0132807 -0.00103284 -6.82567e-05 1.25963
0.765 0.015 -0.0123183 -0.00100064 -6.31714e-05 1.17444
0.77 0.015 -0.0113862 -0.00096714 -5.82504e-05 1.09175
0.775 0.015 -0.0104855 -0.000932483 -5.35001e-05 1.01166
0.78 0.015 -0.00961737 -0.000896811 -4.89257e-05 0.934254
0.785 0.015 -0.0087826 -0.000860267 -4.4532e-05 0.859621
0.79 0.015 -0.00798196 -0.000822995 -4.03231e-05 0.787825
0.795 0.015 -0.00721611 -0.00078514 -3.63021e-05 0.718928
0.8 0.015 -0.00648555 -0.000746843 -3.24717e-05 0.652978
0.805 0.015 -0.00579067 -0.000708245 -2.88337e-05 0.590017
0.81 0.015 -0.0051317 -0.000669481 -2.53892e-05 0.530075
0.815 0.015 -0.0045088 -0.000630686 -2.21389e-05 0.473174
0.82 0.015 -0.00392198 -0.000591988 -1.90824e-05 0.419324
0.825 0.015 -0.00337113 -0.000553512 -1.62189e-05 0.368529
0.83 0.015 -0.00285604 -0.000515375 -1.35472e-05 0.320781
0.835 0.015 -0.00237639 -0.00047769 -1.10652e-05 0.276066