Title=" Lid Driven Flow"
VARIABLES="X","Y","U","V","psi","xi"
ZONE T= "BOX", I= 201, J=201, F=POINT
0 0 0 0 0.00347706 0
0.005 0 0 0 0 0
0.01 0 0 0 0 0
0.015 0 0 0 0 161.891
0.02 0 0 0 0 176.121
0.025 0 0 0 0 155.597
0.03 0 0 0 0 133.202
0.035 0 0 0 0 115.677
0.04 0 0 0 0 102.819
0.045 0 0 0 0 93.284
0.05 0 0 0 0 85.9613
0.055 0 0 0 0 80.1183
0.06 0 0 0 0 75.2964
0.065 0 0 0 0 71.2067
0.07 0 0 0 0 67.6613
0.075 0 0 0 0 64.5336
0.08 0 0 0 0 61.7351
0.085 0 0 0 0 59.2021
0.09 0 0 0 0 56.8879
0.095 0 0 0 0 54.7569
0.1 0 0 0 0 52.7824
0.105 0 0 0 0 50.943
0.11 0 0 0 0 49.2221
0.115 0 0 0 0 47.6062
0.12 0 0 0 0 46.0845
0.125 0 0 0 0 44.6477
0.13 0 0 0 0 43.2883
0.135 0 0 0 0 41.9997
0.14 0 0 0 0 40.7763
0.145 0 0 0 0 39.6133
0.15 0 0 0 0 38.5062
0.155 0 0 0 0 37.4511
0.16 0 0 0 0 36.4446
0.165 0 0 0 0 35.4834
0.17 0 0 0 0 34.5646
0.175 0 0 0 0 33.6855
0.18 0 0 0 0 32.8435
0.185 0 0 0 0 32.0363
0.19 0 0 0 0 31.2616
0.195 0 0 0 0 30.5175
0.2 0 0 0 0 29.802
0.205 0 0 0 0 29.1132
0.21 0 0 0 0 28.4494
0.215 0 0 0 0 27.809
0.22 0 0 0 0 27.1904
0.225 0 0 0 0 26.5922
0.23 0 0 0 0 26.013
0.235 0 0 0 0 25.4516
0.24 0 0 0 0 24.9066
0.245 0 0 0 0 24.377
0.25 0 0 0 0 23.8615
0.255 0 0 0 0 23.3593
0.26 0 0 0 0 22.8693
0.265 0 0 0 0 22.3907
0.27 0 0 0 0 21.9225
0.275 0 0 0 0 21.464
0.28 0 0 0 0 21.0144
0.285 0 0 0 0 20.5731
0.29 0 0 0 0 20.1393
0.295 0 0 0 0 19.7124
0.3 0 0 0 0 19.292
0.305 0 0 0 0 18.8774
0.31 0 0 0 0 18.4682
0.315 0 0 0 0 18.064
0.32 0 0 0 0 17.6643
0.325 0 0 0 0 17.2688
0.33 0 0 0 0 16.8771
0.335 0 0 0 0 16.489
0.34 0 0 0 0 16.1042
0.345 0 0 0 0 15.7224
0.35 0 0 0 0 15.3435
0.355 0 0 0 0 14.9673
0.36 0 0 0 0 14.5936
0.365 0 0 0 0 14.2223
0.37 0 0 0 0 13.8534
0.375 0 0 0 0 13.4867
0.38 0 0 0 0 13.1223
0.385 0 0 0 0 12.7601
0.39 0 0 0 0 12.4001
0.395 0 0 0 0 12.0424
0.4 0 0 0 0 11.687
0.405 0 0 0 0 11.3339
0.41 0 0 0 0 10.9833
0.415 0 0 0 0 10.6353
0.42 0 0 0 0 10.29
0.425 0 0 0 0 9.94747
0.43 0 0 0 0 9.60791
0.435 0 0 0 0 9.27149
0.44 0 0 0 0 8.93836
0.445 0 0 0 0 8.60871
0.45 0 0 0 0 8.28273
0.455 0 0 0 0 7.96061
0.46 0 0 0 0 7.64256
0.465 0 0 0 0 7.32878
0.47 0 0 0 0 7.01948
0.475 0 0 0 0 6.71487
0.48 0 0 0 0 6.41515
0.485 0 0 0 0 6.12053
0.49 0 0 0 0 5.83122
0.495 0 0 0 0 5.5474
0.5 0 0 0 0 5.26929
0.505 0 0 0 0 4.99704
0.51 0 0 0 0 4.73086
0.515 0 0 0 0 4.47089
0.52 0 0 0 0 4.2173
0.525 0 0 0 0 3.97023
0.53 0 0 0 0 3.7298
0.535 0 0 0 0 3.49614
0.54 0 0 0 0 3.26934
0.545 0 0 0 0 3.0495
0.55 0 0 0 0 2.83667
0.555 0 0 0 0 2.63093
0.56 0 0 0 0 2.43231
0.565 0 0 0 0 2.24083
0.57 0 0 0 0 2.05649
0.575 0 0 0 0 1.87929
0.58 0 0 0 0 1.7092
0.585 0 0 0 0 1.54618
0.59 0 0 0 0 1.39018
0.595 0 0 0 0 1.24111
0.6 0 0 0 0 1.09891
0.605 0 0 0 0 0.963458
0.61 0 0 0 0 0.834657
0.615 0 0 0 0 0.712381
0.62 0 0 0 0 0.596497
0.625 0 0 0 0 0.48686
0.63 0 0 0 0 0.38332
0.635 0 0 0 0 0.285715
0.64 0 0 0 0 0.193879
0.645 0 0 0 0 0.107639
0.65 0 0 0 0 0.0268173
0.655 0 0 0 0 -0.0487692
0.66 0 0 0 0 -0.119306
0.665 0 0 0 0 -0.18498
0.67 0 0 0 0 -0.245983
0.675 0 0 0 0 -0.302506
0.68 0 0 0 0 -0.35474
0.685 0 0 0 0 -0.402878
0.69 0 0 0 0 -0.447112
0.695 0 0 0 0 -0.487635
0.7 0 0 0 0 -0.524638
0.705 0 0 0 0 -0.558312
0.71 0 0 0 0 -0.588845
0.715 0 0 0 0 -0.616425
0.72 0 0 0 0 -0.64124
0.725 0 0 0 0 -0.663473
0.73 0 0 0 0 -0.683305
0.735 0 0 0 0 -0.700915
0.74 0 0 0 0 -0.716475
0.745 0 0 0 0 -0.730154
0.75 0 0 0 0 -0.742114
0.755 0 0 0 0 -0.752508
0.76 0 0 0 0 -0.761482
0.765 0 0 0 0 -0.769169
0.77 0 0 0 0 -0.775693
0.775 0 0 0 0 -0.781161
0.78 0 0 0 0 -0.785668
0.785 0 0 0 0 -0.789291
0.79 0 0 0 0 -0.792091
0.795 0 0 0 0 -0.79411
0.8 0 0 0 0 -0.795373
0.805 0 0 0 0 -0.795885
0.81 0 0 0 0 -0.795633
0.815 0 0 0 0 -0.794586
0.82 0 0 0 0 -0.792694
0.825 0 0 0 0 -0.789894
0.83 0 0 0 0 -0.786107
0.835 0 0 0 0 -0.781241
0.84 0 0 0 0 -0.775197
0.845 0 0 0 0 -0.767864
0.85 0 0 0 0 -0.759132
0.855 0 0 0 0 -0.748885
0.86 0 0 0 0 -0.737013
0.865 0 0 0 0 -0.723409
0.87 0 0 0 0 -0.707977
0.875 0 0 0 0 -0.690633
0.88 0 0 0 0 -0.67131
0.885 0 0 0 0 -0.649963
0.89 0 0 0 0 -0.626568
0.895 0 0 0 0 -0.601129
0.9 0 0 0 0 -0.573682
0.905 0 0 0 0 -0.544293
0.91 0 0 0 0 -0.513067
0.915 0 0 0 0 -0.480143
0.92 0 0 0 0 -0.445703
0.925 0 0 0 0 -0.409967
0.93 0 0 0 0 -0.373198
0.935 0 0 0 0 -0.335702
0.94 0 0 0 0 -0.297827
0.945 0 0 0 0 -0.259964
0.95 0 0 0 0 -0.222546
0.955 0 0 0 0 -0.18605
0.96 0 0 0 0 -0.150992
0.965 0 0 0 0 -0.117932
0.97 0 0 0 0 -0.0874673
0.975 0 0 0 0 -0.0602314
0.98 0 0 0 0 -0.0368846
0.985 0 0 0 0 -0.0180934
0.99 0 0 0 0 -0.00448093
0.995 0 0 0 0 0.00349037
1 0 0 0 0 0.00579479
0 0.005 0 0 0 0
0.005 0.005 0 0 0 0
0.01 0.005 0 0 0 73.7283
0.015 0.005 0 0 0 62.0758
0.02 0.005 0 0 0 45.7379
0.025 0.005 0 0 0 33.9774
0.03 0.005 0 0 0 26.0787
0.035 0.005 0 0 0 20.6414
0.04 0.005 0 0 0 16.7254
0.045 0.005 0 0 0 13.7818
0.05 0.005 0 0 0 11.4928
0.055 0.005 0 0 0 9.66845
0.06 0.005 0 0 0 8.18927
0.065 0.005 0 0 0 6.97589
0.07 0.005 0 0 0 5.97277
0.075 0.005 0 0 0 5.13928
0.08 0.005 0 0 0 4.44458
0.085 0.005 0 0 0 3.86455
0.09 0.005 0 0 0 3.37994
0.095 0.005 0 0 0 2.97514
0.1 0.005 0 0 0 2.63735
0.105 0.005 0 0 0 2.35599
0.11 0.005 0 0 0 2.12227
0.115 0.005 0 0 0 1.92888
0.12 0.005 0 0 0 1.76968
0.125 0.005 0 0 0 1.63957
0.13 0.005 0 0 0 1.53425
0.135 0.005 0 0 0 1.45015
0.14 0.005 0 0 0 1.38427
0.145 0.005 0 0 0 1.33409
0.15 0.005 0 0 0 1.29752
0.155 0.005 0 0 0 1.27279
0.16 0.005 0 0 0 1.25844
0.165 0.005 0 0 0 1.25324
0.17 0.005 0 0 0 1.25618
0.175 0.005 0 0 0 1.26639
0.18 0.005 0 0 0 1.28317
0.185 0.005 0 0 0 1.30593
0.19 0.005 0 0 0 1.33416
0.195 0.005 0 0 0 1.36744
0.2 0.005 0 0 0 1.40545
0.205 0.005 0 0 0 1.44786
0.21 0.005 0 0 0 1.49445
0.215 0.005 0 0 0 1.54499
0.22 0.005 0 0 0 1.5993
0.225 0.005 0 0 0 1.65723
0.23 0.005 0 0 0 1.71862
0.235 0.005 0 0 0 1.78336
0.24 0.005 0 0 0 1.85132
0.245 0.005 0 0 0 1.92241
0.25 0.005 0 0 0 1.9965
0.255 0.005 0 0 0 2.07351
0.26 0.005 0 0 0 2.15334
0.265 0.005 0 0 0 2.23588
0.27 0.005 0 0 0 2.32105
0.275 0.005 0 0 0 2.40874
0.28 0.005 0 0 0 2.49884
0.285 0.005 0 0 0 2.59126
0.29 0.005 0 0 0 2.68587
0.295 0.005 0 0 0 2.78257
0.3 0.005 0 0 0 2.88123
0.305 0.005 0 0 0 2.98174
0.31 0.005 0 0 0 3.08395
0.315 0.005 0 0 0 3.18773
0.32 0.005 0 0 0 3.29295
0.325 0.005 0 0 0 3.39945
0.33 0.005 0 0 0 3.50708
0.335 0.005 0 0 0 3.61568
0.34 0.005 0 0 0 3.72509
0.345 0.005 0 0 0 3.83513
0.35 0.005 0 0 0 3.94563
0.355 0.005 0 0 0 4.05641
0.36 0.005 0 0 0 4.16729
0.365 0.005 0 0 0 4.27806
0.37 0.005 0 0 0 4.38854
0.375 0.005 0 0 0 4.49853
0.38 0.005 0 0 0 4.60783
0.385 0.005 0 0 0 4.71622
0.39 0.005 0 0 0 4.8235
0.395 0.005 0 0 0 4.92945
0.4 0.005 0 0 0 5.03387
0.405 0.005 0 0 0 5.13654
0.41 0.005 0 0 0 5.23724
0.415 0.005 0 0 0 5.33574
0.42 0.005 0 0 0 5.43185
0.425 0.005 0 0 0 5.52532
0.43 0.005 0 0 0 5.61596
0.435 0.005 0 0 0 5.70354
0.44 0.005 0 0 0 5.78786
0.445 0.005 0 0 0 5.86869
0.45 0.005 0 0 0 5.94584
0.455 0.005 0 0 0 6.01909
0.46 0.005 0 0 0 6.08825
0.465 0.005 0 0 0 6.15313
0.47 0.005 0 0 0 6.21353
0.475 0.005 0 0 0 6.26927
0.48 0.005 0 0 0 6.32018
0.485 0.005 0 0 0 6.36608
0.49 0.005 0 0 0 6.40681
0.495 0.005 0 0 0 6.44223
0.5 0.005 0 0 0 6.47218
0.505 0.005 0 0 0 6.49654
0.51 0.005 0 0 0 6.51517
0.515 0.005 0 0 0 6.52798
0.52 0.005 0 0 0 6.53486
0.525 0.005 0 0 0 6.53571
0.53 0.005 0 0 0 6.53047
0.535 0.005 0 0 0 6.51907
0.54 0.005 0 0 0 6.50147
0.545 0.005 0 0 0 6.47762
0.55 0.005 0 0 0 6.44751
0.555 0.005 0 0 0 6.41114
0.56 0.005 0 0 0 6.36851
0.565 0.005 0 0 0 6.31966
0.57 0.005 0 0 0 6.26462
0.575 0.005 0 0 0 6.20345
0.58 0.005 0 0 0 6.13624
0.585 0.005 0 0 0 6.06308
0.59 0.005 0 0 0 5.98406
0.595 0.005 0 0 0 5.89933
0.6 0.005 0 0 0 5.80902
0.605 0.005 0 0 0 5.7133
0.61 0.005 0 0 0 5.61233
0.615 0.005 0 0 0 5.50632
0.62 0.005 0 0 0 5.39547
0.625 0.005 0 0 0 5.28
0.63 0.005 0 0 0 5.16016
0.635 0.005 0 0 0 5.03619
0.64 0.005 0 0 0 4.90836
0.645 0.005 0 0 0 4.77696
0.65 0.005 0 0 0 4.64226
0.655 0.005 0 0 0 4.50457
0.66 0.005 0 0 0 4.36421
0.665 0.005 0 0 0 4.22149
0.67 0.005 0 0 0 4.07674
0.675 0.005 0 0 0 3.93029
0.68 0.005 0 0 0 3.78249
0.685 0.005 0 0 0 3.63367
0.69 0.005 0 0 0 3.48418
0.695 0.005 0 0 0 3.33436
0.7 0.005 0 0 0 3.18456
0.705 0.005 0 0 0 3.03512
0.71 0.005 0 0 0 2.88639
0.715 0.005 0 0 0 2.73868
0.72 0.005 0 0 0 2.59234
0.725 0.005 0 0 0 2.44769
0.73 0.005 0 0 0 2.30502
0.735 0.005 0 0 0 2.16464
0.74 0.005 0 0 0 2.02684
0.745 0.005 0 0 0 1.8919
0.75 0.005 0 0 0 1.76007
0.755 0.005 0 0 0 1.63159
0.76 0.005 0 0 0 1.5067
0.765 0.005 0 0 0 1.38561
0.77 0.005 0 0 0 1.2685
0.775 0.005 0 0 0 1.15555
0.78 0.005 0 0 0 1.04693
0.785 0.005 0 0 0 0.942751
0.79 0.005 0 0 0 0.843143
0.795 0.005 0 0 0 0.748198
0.8 0.005 0 0 0 0.657992
0.805 0.005 0 0 0 0.572581
0.81 0.005 0 0 0 0.492001
0.815 0.005 0 0 0 0.416269
0.82 0.005 0 0 0 0.345386
0.825 0.005 0 0 0 0.27933
0.83 0.005 0 0 0 0.218067
0.835 0.005 0 0 0 0.161543
0.84 0.005 0 0 0 0.109691
0.845 0.005 0 0 0 0.0624269
0.85 0.005 0 0 0 0.0196562
0.855 0.005 0 0 0 -0.0187299
0.86 0.005 0 0 0 -0.0528509
0.865 0.005 0 0 0 -0.0828365
0.87 0.005 0 0 0 -0.108825
0.875 0.005 0 0 0 -0.130964
0.88 0.005 0 0 0 -0.149405
0.885 0.005 0 0 0 -0.164308
0.89 0.005 0 0 0 -0.175839
0.895 0.005 0 0 0 -0.184164
0.9 0.005 0 0 0 -0.189457
0.905 0.005 0 0 0 -0.191893
0.91 0.005 0 0 0 -0.191651
0.915 0.005 0 0 0 -0.188913
0.92 0.005 0 0 0 -0.183866
0.925 0.005 0 0 0 -0.176701
0.93 0.005 0 0 0 -0.167615
0.935 0.005 0 0 0 -0.156814
0.94 0.005 0 0 0 -0.144515
0.945 0.005 0 0 0 -0.130949
0.95 0.005 0 0 0 -0.116367
0.955 0.005 0 0 0 -0.101044
0.96 0.005 0 0 0 -0.0852913
0.965 0.005 0 0 0 -0.0694576
0.97 0.005 0 0 0 -0.0539473
0.975 0.005 0 0 0 -0.0392303
0.98 0.005 0 0 0 -0.0258561
0.985 0.005 0 0 0 -0.0144617
0.99 0.005 0 0 0 -0.00575675
0.995 0.005 0 0 0 -0.000432446
1 0.005 0 0 0 0.00116069
0 0.01 0 0 0.00116069 0
0.005 0.01 0 0 0 -326.272
0.01 0.01 -0.18005 0.0775947 -0.000921604 -44.3989
0.015 0.01 -0.184882 -0.034988 -0.000775947 9.53452
0.02 0.01 -0.156423 -0.0351229 -0.000571724 19.1198
0.025 0.01 -0.127595 -0.024574 -0.000424718 18.9916
0.03 0.01 -0.104177 -0.0166701 -0.000325984 16.8229
0.035 0.01 -0.0859195 -0.0116916 -0.000258017 14.4872
0.04 0.01 -0.0716309 -0.00857445 -0.000209068 12.4131
0.045 0.01 -0.0602734 -0.00654079 -0.000172272 10.6549
0.05 0.01 -0.0510967 -0.00514168 -0.00014366 9.17822
0.055 0.01 -0.0435801 -0.0041294 -0.000120856 7.93619
0.06 0.01 -0.0373595 -0.0033657 -0.000102366 6.88743
0.065 0.01 -0.0321736 -0.00277063 -8.71986e-05 5.9987
0.07 0.01 -0.027829 -0.00229576 -7.46596e-05 5.24366
0.075 0.01 -0.0241779 -0.00191024 -6.4241e-05 4.60127
0.08 0.01 -0.0211043 -0.00159342 -5.55572e-05 4.05448
0.085 0.01 -0.0185152 -0.0013308 -4.83068e-05 3.58923
0.09 0.01 -0.0163346 -0.00111176 -4.22492e-05 3.19379
0.095 0.01 -0.0144998 -0.000928232 -3.71892e-05 2.85828
0.1 0.01 -0.0129585 -0.000773933 -3.29669e-05 2.57428
0.105 0.01 -0.0116671 -0.000643842 -2.94499e-05 2.33466
0.11 0.01 -0.0105885 -0.000533891 -2.65284e-05 2.1333
0.115 0.01 -0.0096918 -0.000440743 -2.4111e-05 1.96494
0.12 0.01 -0.00895066 -0.000361639 -2.2121e-05 1.82513
0.125 0.01 -0.00834292 -0.000294283 -2.04946e-05 1.71
0.13 0.01 -0.00784985 -0.000236762 -1.91781e-05 1.6163
0.135 0.01 -0.00745562 -0.000187474 -1.81269e-05 1.5412
0.14 0.01 -0.00714684 -0.000145076 -1.73034e-05 1.48232
0.145 0.01 -0.00691225 -0.000108443 -1.66762e-05 1.43761
0.15 0.01 -0.00674232 -7.66306e-05 -1.6219e-05 1.40534
0.155 0.01 -0.00662904 -4.88478e-05 -1.59098e-05 1.38402
0.16 0.01 -0.00656564 -2.44307e-05 -1.57305e-05 1.3724
0.165 0.01 -0.00654646 -2.82348e-06 -1.56655e-05 1.36941
0.17 0.01 -0.0065667 1.64389e-05 -1.57022e-05 1.37414
0.175 0.01 -0.00662234 3.37449e-05 -1.58299e-05 1.38583
0.18 0.01 -0.00671 4.94181e-05 -1.60397e-05 1.40381
0.185 0.01 -0.00682683 6.3728e-05 -1.63241e-05 1.42754
0.19 0.01 -0.00697044 7.68978e-05 -1.66769e-05 1.45655
0.195 0.01 -0.00713878 8.91122e-05 -1.70931e-05 1.49042
0.2 0.01 -0.00733015 0.000100523 -1.75681e-05 1.52882
0.205 0.01 -0.00754307 0.000111255 -1.80983e-05 1.57145
0.21 0.01 -0.0077763 0.000121409 -1.86806e-05 1.61805
0.215 0.01 -0.00802876 0.000131068 -1.93124e-05 1.6684
0.22 0.01 -0.00829949 0.000140298 -1.99913e-05 1.7223
0.225 0.01 -0.00858767 0.00014915 -2.07153e-05 1.77957
0.23 0.01 -0.00889255 0.000157666 -2.14828e-05 1.84007
0.235 0.01 -0.00921346 0.000165877 -2.2292e-05 1.90364
0.24 0.01 -0.00954978 0.000173807 -2.31415e-05 1.97015
0.245 0.01 -0.00990092 0.000181472 -2.40301e-05 2.03947
0.25 0.01 -0.0102663 0.000188883 -2.49563e-05 2.11149
0.255 0.01 -0.0106455 0.000196047 -2.59189e-05 2.18608
0.26 0.01 -0.0110378 0.000202967 -2.69167e-05 2.26314
0.265 0.01 -0.0114428 0.000209641 -2.79486e-05 2.34255
0.27 0.01 -0.0118599 0.000216067 -2.90131e-05 2.42419
0.275 0.01 -0.0122887 0.000222238 -3.01092e-05 2.50795
0.28 0.01 -0.0127285 0.000228148 -3.12355e-05 2.59372
0.285 0.01 -0.0131788 0.000233785 -3.23907e-05 2.68138
0.29 0.01 -0.0136391 0.000239141 -3.35734e-05 2.77079
0.295 0.01 -0.0141086 0.000244203 -3.47821e-05 2.86185
0.3 0.01 -0.0145868 0.000248959 -3.60154e-05 2.95441
0.305 0.01 -0.0150731 0.000253395 -3.72717e-05 3.04835
0.31 0.01 -0.0155667 0.000257498 -3.85494e-05 3.14353
0.315 0.01 -0.0160671 0.000261253 -3.98467e-05 3.2398
0.32 0.01 -0.0165733 0.000264646 -4.11619e-05 3.33703
0.325 0.01 -0.0170849 0.000267663 -4.24931e-05 3.43506
0.33 0.01 -0.0176008 0.000270289 -4.38385e-05 3.53373
0.335 0.01 -0.0181204 0.000272509 -4.5196e-05 3.63289
0.34 0.01 -0.0186429 0.000274311 -4.65636e-05 3.73238
0.345 0.01 -0.0191673 0.00027568 -4.79392e-05 3.83203
0.35 0.01 -0.0196929 0.000276602 -4.93204e-05 3.93168
0.355 0.01 -0.0202188 0.000277066 -5.07052e-05 4.03114
0.36 0.01 -0.020744 0.000277059 -5.20911e-05 4.13025
0.365 0.01 -0.0212676 0.00027657 -5.34758e-05 4.22883
0.37 0.01 -0.0217887 0.000275587 -5.48568e-05 4.32669
0.375 0.01 -0.0223063 0.000274102 -5.62317e-05 4.42365
0.38 0.01 -0.0228195 0.000272105 -5.75978e-05 4.51954
0.385 0.01 -0.0233273 0.000269588 -5.89527e-05 4.61416
0.39 0.01 -0.0238287 0.000266545 -6.02937e-05 4.70732
0.395 0.01 -0.0243227 0.000262969 -6.16182e-05 4.79885
0.4 0.01 -0.0248082 0.000258855 -6.29234e-05 4.88854
0.405 0.01 -0.0252844 0.000254201 -6.42068e-05 4.97622
0.41 0.01 -0.0257501 0.000249003 -6.54655e-05 5.0617
0.415 0.01 -0.0262044 0.00024326 -6.66968e-05 5.1448
0.42 0.01 -0.0266462 0.000236974 -6.78981e-05 5.22532
0.425 0.01 -0.0270746 0.000230144 -6.90666e-05 5.30309
0.43 0.01 -0.0274886 0.000222774 -7.01995e-05 5.37794
0.435 0.01 -0.0278871 0.000214868 -7.12943e-05 5.44967
0.44 0.01 -0.0282693 0.000206432 -7.23482e-05 5.51812
0.445 0.01 -0.0286342 0.000197472 -7.33587e-05 5.58312
0.45 0.01 -0.0289807 0.000187998 -7.4323e-05 5.64451
0.455 0.01 -0.0293082 0.000178019 -7.52387e-05 5.70213
0.46 0.01 -0.0296155 0.000167546 -7.61032e-05 5.75581
0.465 0.01 -0.029902 0.000156593 -7.69142e-05 5.80541
0.47 0.01 -0.0301666 0.000145174 -7.76692e-05 5.85079
0.475 0.01 -0.0304088 0.000133305 -7.83659e-05 5.89181
0.48 0.01 -0.0306276 0.000121004 -7.90022e-05 5.92834
0.485 0.01 -0.0308223 0.00010829 -7.9576e-05 5.96026
0.49 0.01 -0.0309923 9.51837e-05 -8.00852e-05 5.98745
0.495 0.01 -0.0311369 8.17072e-05 -8.05279e-05 6.00981
0.5 0.01 -0.0312555 6.78845e-05 -8.09023e-05 6.02723
0.505 0.01 -0.0313476 5.37407e-05 -8.12067e-05 6.03964
0.51 0.01 -0.0314126 3.93028e-05 -8.14397e-05 6.04694
0.515 0.01 -0.0314501 2.4599e-05 -8.15998e-05 6.04908
0.52 0.01 -0.0314596 9.65894e-06 -8.16857e-05 6.04599
0.525 0.01 -0.0314409 -5.48612e-06 -8.16964e-05 6.03762
0.53 0.01 -0.0313937 -2.08037e-05 -8.16309e-05 6.02393
0.535 0.01 -0.0313177 -3.626e-05 -8.14884e-05 6.00491
0.54 0.01 -0.0312128 -5.182e-05 -8.12684e-05 5.98052
0.545 0.01 -0.0310788 -6.74474e-05 -8.09703e-05 5.95078
0.55 0.01 -0.0309158 -8.31049e-05 -8.05939e-05 5.91569
0.555 0.01 -0.0307238 -9.87542e-05 -8.01393e-05 5.87526
0.56 0.01 -0.0305029 -0.000114356 -7.96064e-05 5.82954
0.565 0.01 -0.0302533 -0.00012987 -7.89957e-05 5.77856
0.57 0.01 -0.0299752 -0.000145256 -7.83078e-05 5.72239
0.575 0.01 -0.029669 -0.000160472 -7.75432e-05 5.6611
0.58 0.01 -0.029335 -0.000175478 -7.67031e-05 5.59478
0.585 0.01 -0.0289738 -0.000190229 -7.57885e-05 5.52351
0.59 0.01 -0.0285858 -0.000204686 -7.48008e-05 5.44741
0.595 0.01 -0.0281718 -0.000218805 -7.37417e-05 5.3666
0.6 0.01 -0.0277324 -0.000232546 -7.26128e-05 5.28122
0.605 0.01 -0.0272683 -0.000245866 -7.14162e-05 5.19142
0.61 0.01 -0.0267805 -0.000258725 -7.01542e-05 5.09734
0.615 0.01 -0.0262698 -0.000271083 -6.8829e-05 4.99918
0.62 0.01 -0.0257372 -0.000282901 -6.74434e-05 4.8971
0.625 0.01 -0.0251837 -0.000294142 -6.60001e-05 4.7913
0.63 0.01 -0.0246105 -0.000304769 -6.4502e-05 4.68199
0.635 0.01 -0.0240188 -0.000314748 -6.29524e-05 4.56939
0.64 0.01 -0.0234097 -0.000324047 -6.13546e-05 4.45371
0.645 0.01 -0.0227845 -0.000332634 -5.9712e-05 4.3352
0.65 0.01 -0.0221446 -0.000340481 -5.80283e-05 4.21408
0.655 0.01 -0.0214914 -0.000347563 -5.63072e-05 4.09063
0.66 0.01 -0.0208262 -0.000353857 -5.45527e-05 3.96508
0.665 0.01 -0.0201505 -0.000359341 -5.27687e-05 3.8377
0.67 0.01 -0.0194659 -0.000364 -5.09593e-05 3.70877
0.675 0.01 -0.0187738 -0.000367818 -4.91287e-05 3.57855
0.68 0.01 -0.0180758 -0.000370785 -4.72812e-05 3.44732
0.685 0.01 -0.0173734 -0.000372893 -4.54209e-05 3.31535
0.69 0.01 -0.0166682 -0.00037414 -4.35522e-05 3.18293
0.695 0.01 -0.0159617 -0.000374523 -4.16795e-05 3.05034
0.7 0.01 -0.0152556 -0.000374048 -3.9807e-05 2.91786
0.705 0.01 -0.0145513 -0.00037272 -3.79391e-05 2.78575
0.71 0.01 -0.0138504 -0.000370551 -3.60799e-05 2.6543
0.715 0.01 -0.0131545 -0.000367556 -3.42336e-05 2.52378
0.72 0.01 -0.0124649 -0.000363751 -3.24043e-05 2.39445
0.725 0.01 -0.0117832 -0.00035916 -3.05961e-05 2.26658
0.73 0.01 -0.0111107 -0.000353806 -2.88127e-05 2.14041
0.735 0.01 -0.0104488 -0.000347719 -2.7058e-05 2.01618
0.74 0.01 -0.00979891 -0.00034093 -2.53356e-05 1.89415
0.745 0.01 -0.00916215 -0.000333473 -2.36488e-05 1.77452
0.75 0.01 -0.00853975 -0.000325386 -2.20008e-05 1.65751
0.755 0.01 -0.00793283 -0.000316709 -2.03949e-05 1.54333
0.76 0.01 -0.00734244 -0.000307483 -1.88338e-05 1.43217
0.765 0.01 -0.00676954 -0.000297753 -1.73201e-05 1.3242
0.77 0.01 -0.00621503 -0.000287565 -1.58562e-05 1.21959
0.775 0.01 -0.00567972 -0.000276967 -1.44444e-05 1.11849
0.78 0.01 -0.00516432 -0.000266005 -1.30866e-05 1.02103
0.785 0.01 -0.00466949 -0.00025473 -1.17844e-05 0.927329
0.79 0.01 -0.00419576 -0.000243191 -1.05393e-05 0.837493
0.795 0.01 -0.0037436 -0.000231439 -9.35247e-06 0.75161
0.8 0.01 -0.00331337 -0.000219522 -8.2249e-06 0.669754
0.805 0.01 -0.00290536 -0.000207489 -7.15726e-06 0.59198
0.81 0.01 -0.00251977 -0.000195389 -6.15001e-06 0.518331
0.815 0.01 -0.0021567 -0.000183269 -5.20337e-06 0.448833
0.82 0.01 -0.00181617 -0.000171174 -4.31732e-06 0.383497
0.825 0.01 -0.00149813 -0.000159148 -3.49162e-06 0.322319
0.83 0.01 -0.00120245 -0.000147234 -2.72583e-06 0.265281
0.835 0.01 -0.000928898 -0.00013547 -2.01928e-06 0.212352
0.84 0.01 -0.000677206 -0.000123895 -1.37113e-06 0.163487
0.845 0.01 -0.000447019 -0.000112542 -7.80332e-07 0.118627
0.85 0.01 -0.000237923 -0.000101446 -2.45698e-07 0.0777055
0.855 0.01 -4.94439e-05 -9.06334e-05 2.34129e-07 0.0406403
0.86 0.01 0.000118944 -8.01327e-05 6.60642e-07 0.00734147
0.865 0.01 0.000267816 -6.99673e-05 1.03546e-06 -0.0222912
0.87 0.01 0.000397793 -6.01583e-05 1.36032e-06 -0.0483665
0.875 0.01 0.000509534 -5.07241e-05 1.63705e-06 -0.0710012
0.88 0.01 0.000603734 -4.16806e-05 1.86757e-06 -0.0903196
0.885 0.01 0.000681119 -3.30416e-05 2.05386e-06 -0.106452
0.89 0.01 0.000742443 -2.48188e-05 2.19799e-06 -0.119536
0.895 0.01 0.000788482 -1.7022e-05 2.30205e-06 -0.129712
0.9 0.01 0.000820037 -9.6603e-06 2.36821e-06 -0.13713
0.905 0.01 0.000837928 -2.74186e-06 2.39866e-06 -0.141939
0.91 0.01 0.000842994 3.72499e-06 2.39564e-06 -0.144299
0.915 0.01 0.000836097 9.7311e-06 2.36142e-06 -0.144371
0.92 0.01 0.00081812 1.52655e-05 2.29833e-06 -0.142323
0.925 0.01 0.000789976 2.03142e-05 2.20876e-06 -0.138329
0.93 0.01 0.000752611 2.4859e-05 2.09519e-06 -0.132572
0.935 0.01 0.000707012 2.88757e-05 1.96018e-06 -0.125242
0.94 0.01 0.000654223 3.2332e-05 1.80644e-06 -0.116541
0.945 0.01 0.000595354 3.51855e-05 1.63686e-06 -0.106685
0.95 0.01 0.000531607 3.73803e-05 1.45458e-06 -0.0959062
0.955 0.01 0.000464292 3.88442e-05 1.26306e-06 -0.0844565
0.96 0.01 0.000394858 3.94837e-05 1.06614e-06 -0.0726118
0.965 0.01 0.000324928 3.91801e-05 8.68222e-07 -0.0606751
0.97 0.01 0.000256325 3.77843e-05 6.74342e-07 -0.0489793
0.975 0.01 0.000191113 3.51141e-05 4.90379e-07 -0.0378864
0.98 0.01 0.000131614 3.09608e-05 3.23202e-07 -0.0277794
0.985 0.01 8.03833e-05 2.51242e-05 1.80772e-07 -0.0190363
0.99 0.01 4.00832e-05 1.75366e-05 7.19594e-08 -0.0119669
0.995 0.01 1.30954e-05 8.6468e-06 5.40554e-09 -0.00667131
1 0.01 5.41199e-07 5.40554e-07 -1.45087e-08 -0.00275409
0 0.015 0 0 -0.000432959 0
0.005 0.015 0 0 0 -255.96
0.01 0.015 -0.152868 0.184882 -0.0018005 -79.2511
0.015 0.015 -0.206274 -0.023627 -0.00184882 -16.6375
0.02 0.015 -0.204636 -0.0572871 -0.00156423 2.30731
0.025 0.015 -0.184621 -0.0522452 -0.00127595 7.91346
0.03 0.015 -0.161083 -0.0416757 -0.00104177 9.23407
0.035 0.015 -0.139014 -0.0325466 -0.000859195 9.09906
0.04 0.015 -0.119705 -0.0256461 -0.000716309 8.4753
0.045 0.015 -0.103201 -0.0205342 -0.000602734 7.71567
0.05 0.015 -0.089185 -0.0166932 -0.000510967 6.95348
0.055 0.015 -0.0772896 -0.0137372 -0.000435801 6.23857
0.06 0.015 -0.0671806 -0.0114065 -0.000373595 5.58777
0.065 0.015 -0.0585774 -0.0095305 -0.000321736 5.00444
0.07 0.015 -0.0512486 -0.00799573 -0.00027829 4.48639
0.075 0.015 -0.0450033 -0.00672472 -0.000241779 4.02929
0.08 0.015 -0.0396828 -0.00566274 -0.000211043 3.62804
0.085 0.015 -0.035154 -0.00476974 -0.000185152 3.27742
0.09 0.015 -0.0313044 -0.00401539 -0.000163346 2.97239
0.095 0.015 -0.0280387 -0.00337601 -0.000144998 2.70822
0.1 0.015 -0.0252753 -0.00283268 -0.000129585 2.48053
0.105 0.015 -0.0229446 -0.00237002 -0.000116671 2.28533
0.11 0.015 -0.020987 -0.00197528 -0.000105885 2.119
0.115 0.015 -0.0193515 -0.00163787 -9.6918e-05 1.97827
0.12 0.015 -0.0179943 -0.00134888 -8.95065e-05 1.86024
0.125 0.015 -0.016878 -0.0011008 -8.34292e-05 1.76231
0.13 0.015 -0.0159707 -0.000887303 -7.84985e-05 1.68219
0.135 0.015 -0.015245 -0.000703006 -7.45561e-05 1.61784
0.14 0.015 -0.0146776 -0.000543362 -7.14684e-05 1.5675
0.145 0.015 -0.0142486 -0.000404518 -6.91225e-05 1.5296
0.15 0.015 -0.0139411 -0.000283209 -6.74232e-05 1.50278
0.155 0.015 -0.0137409 -0.000176674 -6.62903e-05 1.48586
0.16 0.015 -0.0136355 -8.2576e-05 -6.56564e-05 1.47781
0.165 0.015 -0.0136147 1.0558e-06 -6.54646e-05 1.47773
0.17 0.015 -0.0136697 7.58837e-05 -6.56669e-05 1.48485
0.175 0.015 -0.0137929 0.000143306 -6.62234e-05 1.49849
0.18 0.015 -0.0139781 0.000204496 -6.71e-05 1.51808
0.185 0.015 -0.0142199 0.000260437 -6.82683e-05 1.54312
0.19 0.015 -0.0145136 0.000311949 -6.97043e-05 1.57315
0.195 0.015 -0.0148555 0.000359713 -7.13878e-05 1.60781
0.2 0.015 -0.015242 0.000404294 -7.33014e-05 1.64676
0.205 0.015 -0.0156705 0.000446158 -7.54307e-05 1.68971
0.21 0.015 -0.0161382 0.000485686 -7.7763e-05 1.73639
0.215 0.015 -0.0166432 0.000523188 -8.02875e-05 1.78659
0.22 0.015 -0.0171835 0.000558914 -8.29949e-05 1.84009
0.225 0.015 -0.0177573 0.000593064 -8.58767e-05 1.89671
0.23 0.015 -0.0183632 0.000625795 -8.89255e-05 1.95627
0.235 0.015 -0.0189997 0.00065723 -9.21346e-05 2.01862
0.24 0.015 -0.0196654 0.000687458 -9.54978e-05 2.08361
0.245 0.015 -0.0203593 0.000716547 -9.90092e-05 2.1511
0.25 0.015 -0.02108 0.000744542 -0.000102663 2.22095
0.255 0.015 -0.0218265 0.000771469 -0.000106455 2.29303
0.26 0.015 -0.0225976 0.00079734 -0.000110378 2.36721
0.265 0.015 -0.0233922 0.000822157 -0.000114428 2.44337
0.27 0.015 -0.0242091 0.000845907 -0.000118599 2.52137
0.275 0.015 -0.0250472 0.000868572 -0.000122887 2.60109
0.28 0.015 -0.0259055 0.000890124 -0.000127285 2.6824
0.285 0.015 -0.0267825 0.000910532 -0.000131788 2.76517
0.29 0.015 -0.0276773 0.000929758 -0.000136391 2.84927
0.295 0.015 -0.0285885 0.000947761 -0.000141086 2.93456
0.3 0.015 -0.0295147 0.000964495 -0.000145868 3.0209
0.305 0.015 -0.0304548 0.000979915 -0.000150731 3.10815
0.31 0.015 -0.0314074 0.000993971 -0.000155667 3.19618
0.315 0.015 -0.0323709 0.00100661 -0.000160671 3.28483
0.32 0.015 -0.033344 0.0010178 -0.000165733 3.37396
0.325 0.015 -0.0343252 0.00102747 -0.000170849 3.46342
0.33 0.015 -0.0353129 0.00103557 -0.000176008 3.55305
0.335 0.015 -0.0363056 0.00104207 -0.000181204 3.6427
0.34 0.015 -0.0373016 0.00104691 -0.000186429 3.73221
0.345 0.015 -0.0382993 0.00105004 -0.000191673 3.82143
0.35 0.015 -0.039297 0.00105143 -0.000196929 3.91018
0.355 0.015 -0.040293 0.00105104 -0.000202188 3.99832
0.36 0.015 -0.0412855 0.00104881 -0.00020744 4.08567
0.365 0.015 -0.0422727 0.00104472 -0.000212676 4.17207
0.37 0.015 -0.0432529 0.00103874 -0.000217887 4.25736
0.375 0.015 -0.0442242 0.00103084 -0.000223063 4.34137
0.38 0.015 -0.0451848 0.00102098 -0.000228195 4.42393
0.385 0.015 -0.0461328 0.00100916 -0.000233273 4.5049
0.39 0.015 -0.0470663 0.000995341 -0.000238287 4.58409
0.395 0.015 -0.0479835 0.000979524 -0.000243227 4.66135
0.4 0.015 -0.0488825 0.000961694 -0.000248082 4.73653
0.405 0.015 -0.0497615 0.000941848 -0.000252844 4.80946
0.41 0.015 -0.0506185 0.000919984 -0.000257501 4.87998
0.415 0.015 -0.0514517 0.000896108 -0.000262044 4.94796
0.42 0.015 -0.0522593 0.000870227 -0.000266462 5.01323
0.425 0.015 -0.0530395 0.000842357 -0.000270746 5.07565
0.43 0.015 -0.0537903 0.000812516 -0.000274886 5.13508
0.435 0.015 -0.0545102 0.000780728 -0.000278871 5.19138
0.44 0.015 -0.0551974 0.000747022 -0.000282693 5.24442
0.445 0.015 -0.05585 0.000711432 -0.000286342 5.29408
0.45 0.015 -0.0564666 0.000673998 -0.000289808 5.34022
0.455 0.015 -0.0570455 0.000634765 -0.000293082 5.38273
0.46 0.015 -0.0575851 0.000593782 -0.000296155 5.42151
0.465 0.015 -0.0580839 0.000551104 -0.00029902 5.45643
0.47 0.015 -0.0585406 0.000506793 -0.000301666 5.48742
0.475 0.015 -0.0589536 0.000460913 -0.000304088 5.51436
0.48 0.015 -0.0593217 0.000413535 -0.000306276 5.53719
0.485 0.015 -0.0596437 0.000364737 -0.000308223 5.55581
0.49 0.015 -0.0599184 0.0003146 -0.000309923 5.57017
0.495 0.015 -0.0601447 0.00026321 -0.000311369 5.58018
0.5 0.015 -0.0603217 0.00021066 -0.000312555 5.58581
0.505 0.015 -0.0604484 0.000157046 -0.000313476 5.58701
0.51 0.015 -0.0605241 0.000102469 -0.000314126 5.58373
0.515 0.015 -0.060548 4.70378e-05 -0.000314501 5.57594
0.52 0.015 -0.0605195 -9.13748e-06 -0.000314597 5.56363
0.525 0.015 -0.0604381 -6.59407e-05 -0.00031441 5.54677
0.53 0.015 -0.0603035 -0.000123252 -0.000313937 5.52538
0.535 0.015 -0.0601153 -0.000180946 -0.000313177 5.49944
0.54 0.015 -0.0598734 -0.000238895 -0.000312128 5.46898
0.545 0.015 -0.0595778 -0.000296967 -0.000310788 5.43403
0.55 0.015 -0.0592284 -0.000355026 -0.000309158 5.3946
0.555 0.015 -0.0588256 -0.000412935 -0.000307238 5.35075
0.56 0.015 -0.0583696 -0.000470551 -0.000305029 5.30253
0.565 0.015 -0.0578609 -0.000527733 -0.000302533 5.25
0.57 0.015 -0.0573001 -0.000584333 -0.000299752 5.19322
0.575 0.015 -0.0566878 -0.000640206 -0.00029669 5.13229
0.58 0.015 -0.0560249 -0.000695204 -0.00029335 5.06728
0.585 0.015 -0.0553123 -0.000749179 -0.000289738 4.9983
0.59 0.015 -0.0545513 -0.000801982 -0.000285858 4.92545
0.595 0.015 -0.0537428 -0.000853466 -0.000281718 4.84885
0.6 0.015 -0.0528884 -0.000903486 -0.000277324 4.76862
0.605 0.015 -0.0519895 -0.000951896 -0.000272684 4.68491
0.61 0.015 -0.0510477 -0.000998556 -0.000267805 4.59784
0.615 0.015 -0.0500646 -0.00104333 -0.000262698 4.50757
0.62 0.015 -0.0490422 -0.00108607 -0.000257372 4.41425
0.625 0.015 -0.0479824 -0.00112666 -0.000251838 4.31806
0.63 0.015 -0.0468872 -0.00116498 -0.000246106 4.21916
0.635 0.015 -0.0457588 -0.00120089 -0.000240188 4.11774
0.64 0.015 -0.0445994 -0.00123429 -0.000234097 4.01396
0.645 0.015 -0.0434115 -0.00126508 -0.000227845 3.90804
0.65 0.015 -0.0421973 -0.00129316 -0.000221446 3.80016
0.655 0.015 -0.0409595 -0.00131844 -0.000214914 3.69052
0.66 0.015 -0.0397007 -0.00134084 -0.000208262 3.57934
0.665 0.015 -0.0384233 -0.00136029 -0.000201505 3.46681
0.67 0.015 -0.0371303 -0.00137673 -0.000194659 3.35315
0.675 0.015 -0.0358243 -0.00139012 -0.000187738 3.23857
0.68 0.015 -0.034508 -0.00140042 -0.000180758 3.1233
0.685 0.015 -0.0331843 -0.00140761 -0.000173734 3.00754
0.69 0.015 -0.031856 -0.00141167 -0.000166682 2.89153
0.695 0.015 -0.0305259 -0.00141261 -0.000159617 2.77547
0.7 0.015 -0.0291969 -0.00141043 -0.000152556 2.65958
0.705 0.015 -0.0278717 -0.00140517 -0.000145513 2.54409
0.71 0.015 -0.026553 -0.00139686 -0.000138504 2.4292
0.715 0.015 -0.0252437 -0.00138555 -0.000131545 2.31513
0.72 0.015 -0.0239463 -0.0013713 -0.000124649 2.20209
0.725 0.015 -0.0226636 -0.0013542 -0.000117832 2.09027
0.73 0.015 -0.021398 -0.00133433 -0.000111107 1.97988
0.735 0.015 -0.020152 -0.0013118 -0.000104488 1.87112
0.74 0.015 -0.0189279 -0.0012867 -9.79892e-05 1.76416
0.745 0.015 -0.0177282 -0.00125917 -9.16216e-05 1.65919
0.75 0.015 -0.0165548 -0.00122933 -8.53975e-05 1.55638
0.755 0.015 -0.0154099 -0.00119732 -7.93283e-05 1.4559
0.76 0.015 -0.0142954 -0.0011633 -7.34244e-05 1.35789
0.765 0.015 -0.013213 -0.00112741 -6.76954e-05 1.26251
0.77 0.015 -0.0121644 -0.00108982 -6.21503e-05 1.1699
0.775 0.015 -0.0111511 -0.00105071 -5.67972e-05 1.08017
0.78 0.015 -0.0101744 -0.00101023 -5.16433e-05 0.993448
0.785 0.015 -0.00923558 -0.000968566 -4.66949e-05 0.909832
0.79 0.015 -0.00833564 -0.000925894 -4.19576e-05 0.829417
0.795 0.015 -0.00747547 -0.000882391 -3.7436e-05 0.752284
0.8 0.015 -0.0066558 -0.000838234 -3.31337e-05 0.678502
0.805 0.015 -0.00587718 -0.000793601 -2.90536e-05 0.60813
0.81 0.015 -0.00514004 -0.000748666 -2.51977e-05 0.541212
0.815 0.015 -0.00444463 -0.000703598 -2.1567e-05 0.477783
0.82 0.015 -0.00379105 -0.000658564 -1.81617e-05 0.417864
0.825 0.015 -0.00317925 -0.000613725 -1.49813e-05 0.361466
0.83 0.015 -0.00260905 -0.000569234 -1.20244e-05 0.308588
0.835 0.015 -0.00208012 -0.000525238 -9.28897e-06 0.259216
0.84 0.015 -0.001592 -0.000481877 -6.77205e-06 0.213328