Title=" Lid Driven Flow"
VARIABLES="X","Y","U","V","psi","xi"
ZONE T= "BOX", I= 201, J=201, F=POINT
0 0 0 0 0.001628 0
0.005 0 0 0 0 0
0.01 0 0 0 0 0
0.015 0 0 0 0 161.89
0.02 0 0 0 0 176.128
0.025 0 0 0 0 155.623
0.03 0 0 0 0 133.253
0.035 0 0 0 0 115.756
0.04 0 0 0 0 102.921
0.045 0 0 0 0 93.4033
0.05 0 0 0 0 86.0894
0.055 0 0 0 0 80.2457
0.06 0 0 0 0 75.4135
0.065 0 0 0 0 71.3042
0.07 0 0 0 0 67.7307
0.075 0 0 0 0 64.5673
0.08 0 0 0 0 61.7266
0.085 0 0 0 0 59.1462
0.09 0 0 0 0 56.7802
0.095 0 0 0 0 54.5943
0.1 0 0 0 0 52.5623
0.105 0 0 0 0 50.6642
0.11 0 0 0 0 48.8837
0.115 0 0 0 0 47.2082
0.12 0 0 0 0 45.6272
0.125 0 0 0 0 44.1321
0.13 0 0 0 0 42.7155
0.135 0 0 0 0 41.3713
0.14 0 0 0 0 40.094
0.145 0 0 0 0 38.8788
0.15 0 0 0 0 37.7215
0.155 0 0 0 0 36.6182
0.16 0 0 0 0 35.5655
0.165 0 0 0 0 34.5601
0.17 0 0 0 0 33.599
0.175 0 0 0 0 32.6794
0.18 0 0 0 0 31.7987
0.185 0 0 0 0 30.9546
0.19 0 0 0 0 30.1446
0.195 0 0 0 0 29.3665
0.2 0 0 0 0 28.6184
0.205 0 0 0 0 27.8983
0.21 0 0 0 0 27.2043
0.215 0 0 0 0 26.5347
0.22 0 0 0 0 25.8879
0.225 0 0 0 0 25.2621
0.23 0 0 0 0 24.6561
0.235 0 0 0 0 24.0684
0.24 0 0 0 0 23.4976
0.245 0 0 0 0 22.9425
0.25 0 0 0 0 22.402
0.255 0 0 0 0 21.875
0.26 0 0 0 0 21.3603
0.265 0 0 0 0 20.8571
0.27 0 0 0 0 20.3645
0.275 0 0 0 0 19.8816
0.28 0 0 0 0 19.4076
0.285 0 0 0 0 18.9418
0.29 0 0 0 0 18.4836
0.295 0 0 0 0 18.0323
0.3 0 0 0 0 17.5874
0.305 0 0 0 0 17.1484
0.31 0 0 0 0 16.7148
0.315 0 0 0 0 16.2862
0.32 0 0 0 0 15.8623
0.325 0 0 0 0 15.4428
0.33 0 0 0 0 15.0273
0.335 0 0 0 0 14.6156
0.34 0 0 0 0 14.2077
0.345 0 0 0 0 13.8032
0.35 0 0 0 0 13.4022
0.355 0 0 0 0 13.0044
0.36 0 0 0 0 12.61
0.365 0 0 0 0 12.2188
0.37 0 0 0 0 11.831
0.375 0 0 0 0 11.4464
0.38 0 0 0 0 11.0653
0.385 0 0 0 0 10.6877
0.39 0 0 0 0 10.3138
0.395 0 0 0 0 9.94367
0.4 0 0 0 0 9.5775
0.405 0 0 0 0 9.21548
0.41 0 0 0 0 8.85781
0.415 0 0 0 0 8.50469
0.42 0 0 0 0 8.15636
0.425 0 0 0 0 7.81303
0.43 0 0 0 0 7.47495
0.435 0 0 0 0 7.14236
0.44 0 0 0 0 6.81549
0.445 0 0 0 0 6.49459
0.45 0 0 0 0 6.17989
0.455 0 0 0 0 5.87163
0.46 0 0 0 0 5.57004
0.465 0 0 0 0 5.27532
0.47 0 0 0 0 4.98769
0.475 0 0 0 0 4.70734
0.48 0 0 0 0 4.43444
0.485 0 0 0 0 4.16916
0.49 0 0 0 0 3.91165
0.495 0 0 0 0 3.66203
0.5 0 0 0 0 3.42041
0.505 0 0 0 0 3.18689
0.51 0 0 0 0 2.96152
0.515 0 0 0 0 2.74435
0.52 0 0 0 0 2.53541
0.525 0 0 0 0 2.33472
0.53 0 0 0 0 2.14223
0.535 0 0 0 0 1.95794
0.54 0 0 0 0 1.78176
0.545 0 0 0 0 1.61364
0.55 0 0 0 0 1.45347
0.555 0 0 0 0 1.30113
0.56 0 0 0 0 1.15651
0.565 0 0 0 0 1.01945
0.57 0 0 0 0 0.889799
0.575 0 0 0 0 0.767375
0.58 0 0 0 0 0.651997
0.585 0 0 0 0 0.543468
0.59 0 0 0 0 0.441586
0.595 0 0 0 0 0.346135
0.6 0 0 0 0 0.256899
0.605 0 0 0 0 0.173652
0.61 0 0 0 0 0.0961657
0.615 0 0 0 0 0.0242102
0.62 0 0 0 0 -0.0424477
0.625 0 0 0 0 -0.104041
0.63 0 0 0 0 -0.160803
0.635 0 0 0 0 -0.212965
0.64 0 0 0 0 -0.260758
0.645 0 0 0 0 -0.304407
0.65 0 0 0 0 -0.344138
0.655 0 0 0 0 -0.380171
0.66 0 0 0 0 -0.41272
0.665 0 0 0 0 -0.441997
0.67 0 0 0 0 -0.468207
0.675 0 0 0 0 -0.49155
0.68 0 0 0 0 -0.51222
0.685 0 0 0 0 -0.530403
0.69 0 0 0 0 -0.54628
0.695 0 0 0 0 -0.560023
0.7 0 0 0 0 -0.571797
0.705 0 0 0 0 -0.581758
0.71 0 0 0 0 -0.590056
0.715 0 0 0 0 -0.596827
0.72 0 0 0 0 -0.602204
0.725 0 0 0 0 -0.606305
0.73 0 0 0 0 -0.609241
0.735 0 0 0 0 -0.611114
0.74 0 0 0 0 -0.612013
0.745 0 0 0 0 -0.612019
0.75 0 0 0 0 -0.611204
0.755 0 0 0 0 -0.609629
0.76 0 0 0 0 -0.607344
0.765 0 0 0 0 -0.604394
0.77 0 0 0 0 -0.600811
0.775 0 0 0 0 -0.596624
0.78 0 0 0 0 -0.591849
0.785 0 0 0 0 -0.5865
0.79 0 0 0 0 -0.580582
0.795 0 0 0 0 -0.574097
0.8 0 0 0 0 -0.567041
0.805 0 0 0 0 -0.559406
0.81 0 0 0 0 -0.551183
0.815 0 0 0 0 -0.54236
0.82 0 0 0 0 -0.532925
0.825 0 0 0 0 -0.522863
0.83 0 0 0 0 -0.512162
0.835 0 0 0 0 -0.500811
0.84 0 0 0 0 -0.488799
0.845 0 0 0 0 -0.47612
0.85 0 0 0 0 -0.46277
0.855 0 0 0 0 -0.448749
0.86 0 0 0 0 -0.434061
0.865 0 0 0 0 -0.418716
0.87 0 0 0 0 -0.402729
0.875 0 0 0 0 -0.386121
0.88 0 0 0 0 -0.368918
0.885 0 0 0 0 -0.351154
0.89 0 0 0 0 -0.33287
0.895 0 0 0 0 -0.314115
0.9 0 0 0 0 -0.294945
0.905 0 0 0 0 -0.275423
0.91 0 0 0 0 -0.255623
0.915 0 0 0 0 -0.235626
0.92 0 0 0 0 -0.215522
0.925 0 0 0 0 -0.195413
0.93 0 0 0 0 -0.175409
0.935 0 0 0 0 -0.155631
0.94 0 0 0 0 -0.136213
0.945 0 0 0 0 -0.117299
0.95 0 0 0 0 -0.0990469
0.955 0 0 0 0 -0.0816293
0.96 0 0 0 0 -0.065233
0.965 0 0 0 0 -0.0500606
0.97 0 0 0 0 -0.0363308
0.975 0 0 0 0 -0.0242777
0.98 0 0 0 0 -0.0141466
0.985 0 0 0 0 -0.00618436
0.99 0 0 0 0 -0.000614962
0.995 0 0 0 0 0.00241746
1 0 0 0 0 0.00297811
0 0.005 0 0 0 0
0.005 0.005 0 0 0 0
0.01 0.005 0 0 0 73.7261
0.015 0.005 0 0 0 62.0185
0.02 0.005 0 0 0 45.6056
0.025 0.005 0 0 0 33.8016
0.03 0.005 0 0 0 25.9133
0.035 0.005 0 0 0 20.538
0.04 0.005 0 0 0 16.7222
0.045 0.005 0 0 0 13.9013
0.05 0.005 0 0 0 11.7439
0.055 0.005 0 0 0 10.0498
0.06 0.005 0 0 0 8.69235
0.065 0.005 0 0 0 7.58779
0.07 0.005 0 0 0 6.6783
0.075 0.005 0 0 0 5.92249
0.08 0.005 0 0 0 5.2898
0.085 0.005 0 0 0 4.75709
0.09 0.005 0 0 0 4.3065
0.095 0.005 0 0 0 3.92399
0.1 0.005 0 0 0 3.59836
0.105 0.005 0 0 0 3.32059
0.11 0.005 0 0 0 3.08334
0.115 0.005 0 0 0 2.8806
0.12 0.005 0 0 0 2.70739
0.125 0.005 0 0 0 2.55958
0.13 0.005 0 0 0 2.43372
0.135 0.005 0 0 0 2.32691
0.14 0.005 0 0 0 2.23671
0.145 0.005 0 0 0 2.16104
0.15 0.005 0 0 0 2.09814
0.155 0.005 0 0 0 2.04652
0.16 0.005 0 0 0 2.00487
0.165 0.005 0 0 0 1.97211
0.17 0.005 0 0 0 1.94726
0.175 0.005 0 0 0 1.92951
0.18 0.005 0 0 0 1.91813
0.185 0.005 0 0 0 1.91251
0.19 0.005 0 0 0 1.91209
0.195 0.005 0 0 0 1.9164
0.2 0.005 0 0 0 1.925
0.205 0.005 0 0 0 1.93752
0.21 0.005 0 0 0 1.95362
0.215 0.005 0 0 0 1.97301
0.22 0.005 0 0 0 1.99541
0.225 0.005 0 0 0 2.02057
0.23 0.005 0 0 0 2.04828
0.235 0.005 0 0 0 2.07832
0.24 0.005 0 0 0 2.1105
0.245 0.005 0 0 0 2.14465
0.25 0.005 0 0 0 2.18059
0.255 0.005 0 0 0 2.21818
0.26 0.005 0 0 0 2.25726
0.265 0.005 0 0 0 2.29768
0.27 0.005 0 0 0 2.3393
0.275 0.005 0 0 0 2.382
0.28 0.005 0 0 0 2.42564
0.285 0.005 0 0 0 2.4701
0.29 0.005 0 0 0 2.51524
0.295 0.005 0 0 0 2.56094
0.3 0.005 0 0 0 2.60708
0.305 0.005 0 0 0 2.65353
0.31 0.005 0 0 0 2.70019
0.315 0.005 0 0 0 2.74691
0.32 0.005 0 0 0 2.7936
0.325 0.005 0 0 0 2.84012
0.33 0.005 0 0 0 2.88635
0.335 0.005 0 0 0 2.93219
0.34 0.005 0 0 0 2.97751
0.345 0.005 0 0 0 3.02219
0.35 0.005 0 0 0 3.06613
0.355 0.005 0 0 0 3.10919
0.36 0.005 0 0 0 3.15128
0.365 0.005 0 0 0 3.19228
0.37 0.005 0 0 0 3.23208
0.375 0.005 0 0 0 3.27057
0.38 0.005 0 0 0 3.30765
0.385 0.005 0 0 0 3.34321
0.39 0.005 0 0 0 3.37714
0.395 0.005 0 0 0 3.40936
0.4 0.005 0 0 0 3.43977
0.405 0.005 0 0 0 3.46827
0.41 0.005 0 0 0 3.49478
0.415 0.005 0 0 0 3.51922
0.42 0.005 0 0 0 3.5415
0.425 0.005 0 0 0 3.56155
0.43 0.005 0 0 0 3.5793
0.435 0.005 0 0 0 3.5947
0.44 0.005 0 0 0 3.60767
0.445 0.005 0 0 0 3.61817
0.45 0.005 0 0 0 3.62614
0.455 0.005 0 0 0 3.63155
0.46 0.005 0 0 0 3.63436
0.465 0.005 0 0 0 3.63455
0.47 0.005 0 0 0 3.63208
0.475 0.005 0 0 0 3.62694
0.48 0.005 0 0 0 3.61913
0.485 0.005 0 0 0 3.60864
0.49 0.005 0 0 0 3.59547
0.495 0.005 0 0 0 3.57963
0.5 0.005 0 0 0 3.56115
0.505 0.005 0 0 0 3.54004
0.51 0.005 0 0 0 3.51634
0.515 0.005 0 0 0 3.49008
0.52 0.005 0 0 0 3.4613
0.525 0.005 0 0 0 3.43006
0.53 0.005 0 0 0 3.39641
0.535 0.005 0 0 0 3.36041
0.54 0.005 0 0 0 3.32213
0.545 0.005 0 0 0 3.28164
0.55 0.005 0 0 0 3.23901
0.555 0.005 0 0 0 3.19434
0.56 0.005 0 0 0 3.1477
0.565 0.005 0 0 0 3.09918
0.57 0.005 0 0 0 3.04888
0.575 0.005 0 0 0 2.99691
0.58 0.005 0 0 0 2.94335
0.585 0.005 0 0 0 2.88831
0.59 0.005 0 0 0 2.8319
0.595 0.005 0 0 0 2.77422
0.6 0.005 0 0 0 2.71539
0.605 0.005 0 0 0 2.65552
0.61 0.005 0 0 0 2.5947
0.615 0.005 0 0 0 2.53307
0.62 0.005 0 0 0 2.47072
0.625 0.005 0 0 0 2.40777
0.63 0.005 0 0 0 2.34432
0.635 0.005 0 0 0 2.2805
0.64 0.005 0 0 0 2.2164
0.645 0.005 0 0 0 2.15212
0.65 0.005 0 0 0 2.08779
0.655 0.005 0 0 0 2.02348
0.66 0.005 0 0 0 1.95931
0.665 0.005 0 0 0 1.89536
0.67 0.005 0 0 0 1.83173
0.675 0.005 0 0 0 1.76851
0.68 0.005 0 0 0 1.70578
0.685 0.005 0 0 0 1.64363
0.69 0.005 0 0 0 1.58213
0.695 0.005 0 0 0 1.52135
0.7 0.005 0 0 0 1.46137
0.705 0.005 0 0 0 1.40225
0.71 0.005 0 0 0 1.34404
0.715 0.005 0 0 0 1.28682
0.72 0.005 0 0 0 1.23062
0.725 0.005 0 0 0 1.17551
0.73 0.005 0 0 0 1.12151
0.735 0.005 0 0 0 1.06868
0.74 0.005 0 0 0 1.01705
0.745 0.005 0 0 0 0.966646
0.75 0.005 0 0 0 0.917502
0.755 0.005 0 0 0 0.869641
0.76 0.005 0 0 0 0.823084
0.765 0.005 0 0 0 0.777849
0.77 0.005 0 0 0 0.733948
0.775 0.005 0 0 0 0.691394
0.78 0.005 0 0 0 0.650193
0.785 0.005 0 0 0 0.610351
0.79 0.005 0 0 0 0.57187
0.795 0.005 0 0 0 0.534749
0.8 0.005 0 0 0 0.498985
0.805 0.005 0 0 0 0.464574
0.81 0.005 0 0 0 0.431508
0.815 0.005 0 0 0 0.39978
0.82 0.005 0 0 0 0.369377
0.825 0.005 0 0 0 0.340289
0.83 0.005 0 0 0 0.312502
0.835 0.005 0 0 0 0.286
0.84 0.005 0 0 0 0.260769
0.845 0.005 0 0 0 0.236792
0.85 0.005 0 0 0 0.214052
0.855 0.005 0 0 0 0.192529
0.86 0.005 0 0 0 0.172207
0.865 0.005 0 0 0 0.153065
0.87 0.005 0 0 0 0.135085
0.875 0.005 0 0 0 0.118247
0.88 0.005 0 0 0 0.102531
0.885 0.005 0 0 0 0.0879184
0.89 0.005 0 0 0 0.0743887
0.895 0.005 0 0 0 0.0619227
0.9 0.005 0 0 0 0.050501
0.905 0.005 0 0 0 0.0401043
0.91 0.005 0 0 0 0.0307134
0.915 0.005 0 0 0 0.0223092
0.92 0.005 0 0 0 0.0148724
0.925 0.005 0 0 0 0.00838358
0.93 0.005 0 0 0 0.00282284
0.935 0.005 0 0 0 -0.00183061
0.94 0.005 0 0 0 -0.00559892
0.945 0.005 0 0 0 -0.00850637
0.95 0.005 0 0 0 -0.0105804
0.955 0.005 0 0 0 -0.011853
0.96 0.005 0 0 0 -0.0123631
0.965 0.005 0 0 0 -0.0121593
0.97 0.005 0 0 0 -0.0113043
0.975 0.005 0 0 0 -0.00988181
0.98 0.005 0 0 0 -0.00800625
0.985 0.005 0 0 0 -0.00583744
0.99 0.005 0 0 0 -0.0036017
0.995 0.005 0 0 0 -0.00161642
1 0.005 0 0 0 -0.000293106
0 0.01 0 0 -0.000293106 0
0.005 0.01 0 0 0 -326.274
0.01 0.01 -0.17999 0.0775231 -0.000921576 -44.4471
0.015 0.01 -0.184632 -0.0351506 -0.000775231 9.48161
0.02 0.01 -0.155963 -0.0352712 -0.00057007 19.0839
0.025 0.01 -0.127049 -0.0246153 -0.00042252 18.976
0.03 0.01 -0.103732 -0.0165794 -0.000323917 16.836
0.035 0.01 -0.0857563 -0.0114889 -0.000256725 14.5443
0.04 0.01 -0.0718874 -0.00829591 -0.000209028 12.5301
0.045 0.01 -0.061035 -0.00622292 -0.000173766 10.8445
0.05 0.01 -0.0524002 -0.00481436 -0.000146799 9.44781
0.055 0.01 -0.0454235 -0.00381444 -0.000125622 8.28793
0.06 0.01 -0.0397125 -0.0030775 -0.000108654 7.3191
0.065 0.01 -0.0349875 -0.00251755 -9.48473e-05 6.50474
0.07 0.01 -0.0310444 -0.00208162 -8.34787e-05 5.81628
0.075 0.01 -0.0277309 -0.00173562 -7.4031e-05 5.23142
0.08 0.01 -0.0249308 -0.00145673 -6.61223e-05 4.73254
0.085 0.01 -0.0225541 -0.0012291 -5.94635e-05 4.30562
0.09 0.01 -0.0205295 -0.00104136 -5.38311e-05 3.93933
0.095 0.01 -0.0188 -0.000885167 -4.90497e-05 3.62445
0.1 0.01 -0.0173196 -0.000754237 -4.49793e-05 3.35341
0.105 0.01 -0.0160506 -0.000643754 -4.15071e-05 3.11993
0.11 0.01 -0.0149621 -0.000549967 -3.85416e-05 2.91877
0.115 0.01 -0.0140284 -0.00046992 -3.60073e-05 2.74554
0.12 0.01 -0.0132281 -0.000401252 -3.38422e-05 2.59656
0.125 0.01 -0.0125432 -0.000342065 -3.19946e-05 2.46867
0.13 0.01 -0.0119586 -0.000290817 -3.04214e-05 2.35924
0.135 0.01 -0.0114615 -0.000246249 -2.90863e-05 2.26599
0.14 0.01 -0.011041 -0.000207326 -2.79587e-05 2.18697
0.145 0.01 -0.0106879 -0.000173192 -2.70129e-05 2.12052
0.15 0.01 -0.0103943 -0.000143139 -2.62267e-05 2.06521
0.155 0.01 -0.0101533 -0.000116573 -2.55813e-05 2.0198
0.16 0.01 -0.0099591 -9.30003e-05 -2.50608e-05 1.98321
0.165 0.01 -0.00980662 -7.20038e-05 -2.46512e-05 1.95451
0.17 0.01 -0.00969147 -5.32334e-05 -2.43406e-05 1.93288
0.175 0.01 -0.00960983 -3.63932e-05 -2.41187e-05 1.91762
0.18 0.01 -0.00955837 -2.12328e-05 -2.39766e-05 1.9081
0.185 0.01 -0.00953417 -7.53958e-06 -2.39063e-05 1.90377
0.19 0.01 -0.00953466 4.86683e-06 -2.39011e-05 1.90414
0.195 0.01 -0.00955758 1.614e-05 -2.39549e-05 1.90879
0.2 0.01 -0.0096009 2.64106e-05 -2.40624e-05 1.91733
0.205 0.01 -0.00966285 3.579e-05 -2.42189e-05 1.92942
0.21 0.01 -0.00974183 4.43729e-05 -2.44202e-05 1.94475
0.215 0.01 -0.00983638 5.22403e-05 -2.46626e-05 1.96305
0.22 0.01 -0.0099452 5.94607e-05 -2.49425e-05 1.98406
0.225 0.01 -0.0100671 6.60927e-05 -2.52571e-05 2.00755
0.23 0.01 -0.010201 7.21857e-05 -2.56034e-05 2.03331
0.235 0.01 -0.010346 7.77819e-05 -2.59789e-05 2.06114
0.24 0.01 -0.0105009 8.29167e-05 -2.63812e-05 2.09086
0.245 0.01 -0.0106651 8.76199e-05 -2.68081e-05 2.12231
0.25 0.01 -0.0108377 9.19168e-05 -2.72574e-05 2.15532
0.255 0.01 -0.0110179 9.5828e-05 -2.77272e-05 2.18973
0.26 0.01 -0.011205 9.93712e-05 -2.82157e-05 2.22541
0.265 0.01 -0.0113982 0.000102561 -2.8721e-05 2.26222
0.27 0.01 -0.011597 0.000105408 -2.92413e-05 2.30002
0.275 0.01 -0.0118006 0.000107923 -2.97751e-05 2.33869
0.28 0.01 -0.0120083 0.000110114 -3.03206e-05 2.37809
0.285 0.01 -0.0122197 0.000111987 -3.08763e-05 2.41811
0.29 0.01 -0.0124339 0.000113546 -3.14405e-05 2.45862
0.295 0.01 -0.0126506 0.000114795 -3.20118e-05 2.49951
0.3 0.01 -0.012869 0.000115739 -3.25886e-05 2.54066
0.305 0.01 -0.0130885 0.000116378 -3.31693e-05 2.58196
0.31 0.01 -0.0133086 0.000116716 -3.37524e-05 2.62329
0.315 0.01 -0.0135287 0.000116753 -3.43365e-05 2.66454
0.32 0.01 -0.0137482 0.000116492 -3.49201e-05 2.70561
0.325 0.01 -0.0139666 0.000115933 -3.55016e-05 2.74638
0.33 0.01 -0.0141832 0.000115078 -3.60796e-05 2.78674
0.335 0.01 -0.0143976 0.000113929 -3.66525e-05 2.82659
0.34 0.01 -0.0146091 0.000112487 -3.7219e-05 2.86582
0.345 0.01 -0.0148172 0.000110755 -3.77776e-05 2.90432
0.35 0.01 -0.0150214 0.000108735 -3.83268e-05 2.94201
0.355 0.01 -0.0152211 0.00010643 -3.88651e-05 2.97877
0.36 0.01 -0.0154158 0.000103843 -3.93913e-05 3.0145
0.365 0.01 -0.015605 0.000100978 -3.99038e-05 3.04911
0.37 0.01 -0.0157881 9.78404e-05 -4.04013e-05 3.0825
0.375 0.01 -0.0159647 9.44342e-05 -4.08824e-05 3.11459
0.38 0.01 -0.0161342 9.07656e-05 -4.13459e-05 3.14527
0.385 0.01 -0.0162962 8.6841e-05 -4.17904e-05 3.17447
0.39 0.01 -0.0164503 8.26675e-05 -4.22146e-05 3.2021
0.395 0.01 -0.0165959 7.82529e-05 -4.26173e-05 3.22807
0.4 0.01 -0.0167326 7.36056e-05 -4.29974e-05 3.25232
0.405 0.01 -0.0168601 6.87349e-05 -4.33537e-05 3.27476
0.41 0.01 -0.0169779 6.36507e-05 -4.36851e-05 3.29533
0.415 0.01 -0.0170857 5.83635e-05 -4.39905e-05 3.31396
0.42 0.01 -0.017183 5.28846e-05 -4.4269e-05 3.33059
0.425 0.01 -0.0172697 4.72258e-05 -4.45197e-05 3.34516
0.43 0.01 -0.0173453 4.13998e-05 -4.47417e-05 3.35762
0.435 0.01 -0.0174096 3.54197e-05 -4.49341e-05 3.36791
0.44 0.01 -0.0174623 2.9299e-05 -4.50962e-05 3.37601
0.445 0.01 -0.0175033 2.30522e-05 -4.52274e-05 3.38186
0.45 0.01 -0.0175322 1.66938e-05 -4.53271e-05 3.38544
0.455 0.01 -0.017549 1.02391e-05 -4.53948e-05 3.38672
0.46 0.01 -0.0175534 3.70365e-06 -4.54299e-05 3.38568
0.465 0.01 -0.0175455 -2.89672e-06 -4.54322e-05 3.38229
0.47 0.01 -0.017525 -9.54577e-06 -4.54014e-05 3.37656
0.475 0.01 -0.0174919 -1.62271e-05 -4.53372e-05 3.36846
0.48 0.01 -0.0174463 -2.29241e-05 -4.52395e-05 3.35801
0.485 0.01 -0.017388 -2.962e-05 -4.51084e-05 3.34521
0.49 0.01 -0.0173172 -3.62981e-05 -4.49438e-05 3.33007
0.495 0.01 -0.017234 -4.29417e-05 -4.47458e-05 3.31261
0.5 0.01 -0.0171383 -4.95341e-05 -4.45148e-05 3.29285
0.505 0.01 -0.0170304 -5.60587e-05 -4.4251e-05 3.27081
0.51 0.01 -0.0169104 -6.24994e-05 -4.39547e-05 3.24653
0.515 0.01 -0.0167785 -6.88401e-05 -4.36264e-05 3.22006
0.52 0.01 -0.0166349 -7.50652e-05 -4.32667e-05 3.19142
0.525 0.01 -0.0164799 -8.11593e-05 -4.28762e-05 3.16067
0.53 0.01 -0.0163137 -8.71078e-05 -4.24556e-05 3.12787
0.535 0.01 -0.0161366 -9.28965e-05 -4.20056e-05 3.09307
0.54 0.01 -0.015949 -9.85116e-05 -4.1527e-05 3.05633
0.545 0.01 -0.0157511 -0.00010394 -4.10209e-05 3.01772
0.55 0.01 -0.0155434 -0.00010917 -4.04881e-05 2.97731
0.555 0.01 -0.0153263 -0.00011419 -3.99296e-05 2.93517
0.56 0.01 -0.0151001 -0.000118988 -3.93466e-05 2.89138
0.565 0.01 -0.0148653 -0.000123556 -3.87402e-05 2.84603
0.57 0.01 -0.0146223 -0.000127884 -3.81115e-05 2.79918
0.575 0.01 -0.0143716 -0.000131963 -3.74618e-05 2.75093
0.58 0.01 -0.0141137 -0.000135788 -3.67923e-05 2.70137
0.585 0.01 -0.013849 -0.000139351 -3.61043e-05 2.65059
0.59 0.01 -0.013578 -0.000142648 -3.53991e-05 2.59867
0.595 0.01 -0.0133013 -0.000145674 -3.46782e-05 2.54571
0.6 0.01 -0.0130193 -0.000148425 -3.39428e-05 2.4918
0.605 0.01 -0.0127326 -0.0001509 -3.31943e-05 2.43704
0.61 0.01 -0.0124416 -0.000153098 -3.24341e-05 2.38153
0.615 0.01 -0.012147 -0.000155018 -3.16637e-05 2.32534
0.62 0.01 -0.0118491 -0.00015666 -3.08843e-05 2.26859
0.625 0.01 -0.0115485 -0.000158026 -3.00974e-05 2.21137
0.63 0.01 -0.0112457 -0.000159119 -2.93044e-05 2.15376
0.635 0.01 -0.0109413 -0.000159942 -2.85066e-05 2.09586
0.64 0.01 -0.0106357 -0.000160499 -2.77053e-05 2.03777
0.645 0.01 -0.0103293 -0.000160795 -2.69019e-05 1.97956
0.65 0.01 -0.0100228 -0.000160836 -2.60976e-05 1.92133
0.655 0.01 -0.00971645 -0.000160628 -2.52938e-05 1.86316
0.66 0.01 -0.00941083 -0.000160178 -2.44916e-05 1.80513
0.665 0.01 -0.00910635 -0.000159495 -2.36922e-05 1.74733
0.67 0.01 -0.00880341 -0.000158585 -2.28969e-05 1.68983
0.675 0.01 -0.00850245 -0.000157458 -2.21066e-05 1.6327
0.68 0.01 -0.00820384 -0.000156124 -2.13225e-05 1.57603
0.685 0.01 -0.00790797 -0.000154591 -2.05456e-05 1.51987
0.69 0.01 -0.00761519 -0.000152869 -1.97768e-05 1.4643
0.695 0.01 -0.00732584 -0.000150969 -1.90171e-05 1.40937
0.7 0.01 -0.00704024 -0.0001489 -1.82673e-05 1.35515
0.705 0.01 -0.00675869 -0.000146674 -1.75283e-05 1.30168
0.71 0.01 -0.00648148 -0.000144301 -1.68007e-05 1.24903
0.715 0.01 -0.00620888 -0.000141791 -1.60854e-05 1.19724
0.72 0.01 -0.00594111 -0.000139154 -1.53829e-05 1.14635
0.725 0.01 -0.00567841 -0.000136402 -1.4694e-05 1.09641
0.73 0.01 -0.00542099 -0.000133545 -1.4019e-05 1.04746
0.735 0.01 -0.00516903 -0.000130593 -1.33586e-05 0.999526
0.74 0.01 -0.0049227 -0.000127556 -1.27132e-05 0.952644
0.745 0.01 -0.00468216 -0.000124443 -1.20832e-05 0.906842
0.75 0.01 -0.00444752 -0.000121265 -1.14689e-05 0.862145
0.755 0.01 -0.00421892 -0.00011803 -1.08706e-05 0.818575
0.76 0.01 -0.00399644 -0.000114748 -1.02886e-05 0.776151
0.765 0.01 -0.00378018 -0.000111427 -9.72317e-06 0.734888
0.77 0.01 -0.0035702 -0.000108075 -9.17441e-06 0.694801
0.775 0.01 -0.00336654 -0.000104699 -8.64247e-06 0.655899
0.78 0.01 -0.00316926 -0.000101308 -8.12746e-06 0.61819
0.785 0.01 -0.00297838 -9.79087e-05 -7.62943e-06 0.581681
0.79 0.01 -0.00279391 -9.45069e-05 -7.1484e-06 0.546373
0.795 0.01 -0.00261585 -9.11091e-05 -6.68438e-06 0.512269
0.8 0.01 -0.00244419 -8.77209e-05 -6.23733e-06 0.479368
0.805 0.01 -0.00227892 -8.43477e-05 -5.80719e-06 0.447666
0.81 0.01 -0.00212 -8.09943e-05 -5.39387e-06 0.41716
0.815 0.01 -0.0019674 -7.76651e-05 -4.99726e-06 0.387842
0.82 0.01 -0.00182107 -7.43642e-05 -4.61722e-06 0.359706
0.825 0.01 -0.00168095 -7.10952e-05 -4.25362e-06 0.332742
0.83 0.01 -0.001547 -6.78612e-05 -3.90627e-06 0.306941
0.835 0.01 -0.00141914 -6.46652e-05 -3.575e-06 0.28229
0.84 0.01 -0.0012973 -6.15097e-05 -3.25961e-06 0.258778
0.845 0.01 -0.00118141 -5.83967e-05 -2.9599e-06 0.236391
0.85 0.01 -0.00107139 -5.5328e-05 -2.67564e-06 0.215116
0.855 0.01 -0.000967168 -5.23051e-05 -2.40661e-06 0.194938
0.86 0.01 -0.000868646 -4.93292e-05 -2.15257e-06 0.175843
0.865 0.01 -0.000775742 -4.64011e-05 -1.9133e-06 0.157813
0.87 0.01 -0.00068837 -4.35216e-05 -1.68855e-06 0.140835
0.875 0.01 -0.000606438 -4.06909e-05 -1.47807e-06 0.124891
0.88 0.01 -0.000529858 -3.79093e-05 -1.28163e-06 0.109964
0.885 0.01 -0.000458537 -3.51767e-05 -1.09896e-06 0.0960391
0.89 0.01 -0.000392386 -3.24931e-05 -9.29844e-07 0.0830984
0.895 0.01 -0.000331312 -2.98581e-05 -7.74019e-07 0.0711251
0.9 0.01 -0.000275225 -2.72715e-05 -6.31249e-07 0.0601021
0.905 0.01 -0.000224032 -2.47331e-05 -5.0129e-07 0.0500119
0.91 0.01 -0.000177641 -2.22425e-05 -3.83904e-07 0.0408371
0.915 0.01 -0.000135961 -1.98e-05 -2.78852e-07 0.0325596
0.92 0.01 -9.88966e-05 -1.74057e-05 -1.85893e-07 0.0251609
0.925 0.01 -6.63519e-05 -1.50607e-05 -1.04783e-07 0.0186218
0.93 0.01 -3.82267e-05 -1.27666e-05 -3.5275e-08 0.012922
0.935 0.01 -1.44153e-05 -1.05262e-05 2.28922e-08 0.00803974
0.94 0.01 5.19644e-06 -8.34375e-06 6.99951e-08 0.00395118
0.945 0.01 2.07345e-05 -6.22597e-06 1.06337e-07 0.00062963
0.95 0.01 3.23421e-05 -4.18257e-06 1.32261e-07 -0.00195547
0.955 0.01 4.01862e-05 -2.22776e-06 1.48169e-07 -0.00383993
0.96 0.01 4.44675e-05 -3.82218e-07 1.54544e-07 -0.00506672
0.965 0.01 4.54333e-05 1.32403e-06 1.51994e-07 -0.00568839
0.97 0.01 4.3396e-05 2.84717e-06 1.41306e-07 -0.00577033
0.975 0.01 3.87582e-05 4.12278e-06 1.23524e-07 -0.00539488
0.98 0.01 3.20474e-05 5.05565e-06 1.00079e-07 -0.00466607
0.985 0.01 2.39617e-05 5.5058e-06 7.29685e-08 -0.00371382
0.99 0.01 1.54242e-05 5.27633e-06 4.50214e-08 -0.00269326
0.995 0.01 7.62889e-06 4.13576e-06 2.02052e-08 -0.00176616
1 0.01 2.01634e-06 2.02052e-06 3.66374e-09 -0.00102855
0 0.015 0 0 -0.00161307 0
0.005 0.015 0 0 0 -256.008
0.01 0.015 -0.152723 0.184632 -0.0017999 -79.3156
0.015 0.015 -0.205885 -0.0240269 -0.00184632 -16.6574
0.02 0.015 -0.20406 -0.0575828 -0.00155963 2.36151
0.025 0.015 -0.184054 -0.0522304 -0.00127049 8.0227
0.03 0.015 -0.160786 -0.0412927 -0.00103732 9.37822
0.035 0.015 -0.139236 -0.0318449 -0.000857563 9.27018
0.04 0.015 -0.120639 -0.0247213 -0.000718874 8.67465
0.045 0.015 -0.10497 -0.0194872 -0.00061035 7.94855
0.05 0.015 -0.0918465 -0.0156115 -0.000524002 7.22557
0.055 0.015 -0.0808418 -0.0126877 -0.000454235 6.55407
0.06 0.015 -0.0715797 -0.010436 -0.000397125 5.94865
0.065 0.015 -0.0637495 -0.0086681 -0.000349874 5.41043
0.07 0.015 -0.0571016 -0.00725657 -0.000310443 4.93533
0.075 0.015 -0.0514357 -0.00611348 -0.000277308 4.51751
0.08 0.015 -0.0465909 -0.0051767 -0.000249308 4.15084
0.085 0.015 -0.0424369 -0.00440131 -0.00022554 3.82948
0.09 0.015 -0.0388676 -0.00375406 -0.000205294 3.5481
0.095 0.015 -0.0357957 -0.00320984 -0.000187999 3.30196
0.1 0.015 -0.0331488 -0.00274931 -0.000173195 3.08687
0.105 0.015 -0.030867 -0.00235739 -0.000160505 2.89913
0.11 0.015 -0.0288998 -0.00202213 -0.00014962 2.73553
0.115 0.015 -0.027205 -0.00173396 -0.000140283 2.59325
0.12 0.015 -0.0257468 -0.00148517 -0.00013228 2.46985
0.125 0.015 -0.0244949 -0.00126945 -0.000125431 2.36316
0.13 0.015 -0.0234235 -0.00108164 -0.000119585 2.27132
0.135 0.015 -0.0225106 -0.000917502 -0.000114614 2.19269
0.14 0.015 -0.0217373 -0.000773489 -0.00011041 2.12583
0.145 0.015 -0.0210874 -0.000646665 -0.000106879 2.06949
0.15 0.015 -0.0205469 -0.000534569 -0.000103942 2.02256
0.155 0.015 -0.0201036 -0.000435138 -0.000101532 1.98408
0.16 0.015 -0.0197472 -0.000346631 -9.95905e-05 1.95319
0.165 0.015 -0.0194684 -0.000267579 -9.80657e-05 1.92914
0.17 0.015 -0.0192593 -0.000196737 -9.69142e-05 1.91126
0.175 0.015 -0.019113 -0.000133048 -9.60979e-05 1.89896
0.18 0.015 -0.0190234 -7.56137e-05 -9.55833e-05 1.89172
0.185 0.015 -0.018985 -2.36681e-05 -9.53414e-05 1.88907
0.19 0.015 -0.0189931 2.34423e-05 -9.53463e-05 1.89059
0.195 0.015 -0.0190435 6.62758e-05 -9.55755e-05 1.89592
0.2 0.015 -0.0191324 0.000105309 -9.60087e-05 1.9047
0.205 0.015 -0.0192564 0.000140951 -9.66283e-05 1.91664
0.21 0.015 -0.0194126 0.000173549 -9.7418e-05 1.93147
0.215 0.015 -0.0195982 0.000203401 -9.83635e-05 1.94892
0.22 0.015 -0.0198107 0.000230764 -9.94518e-05 1.96877
0.225 0.015 -0.0200478 0.000255852 -0.000100671 1.9908
0.23 0.015 -0.0203074 0.000278852 -0.00010201 2.01482
0.235 0.015 -0.0205876 0.000299922 -0.000103459 2.04065
0.24 0.015 -0.0208867 0.000319194 -0.000105009 2.06811
0.245 0.015 -0.0212029 0.000336781 -0.000106651 2.09705
0.25 0.015 -0.0215346 0.00035278 -0.000108377 2.12731
0.255 0.015 -0.0218804 0.00036727 -0.000110179 2.15875
0.26 0.015 -0.0222387 0.000380319 -0.00011205 2.19123
0.265 0.015 -0.0226083 0.000391983 -0.000113982 2.22461
0.27 0.015 -0.0229878 0.000402307 -0.00011597 2.25878
0.275 0.015 -0.0233759 0.000411332 -0.000118006 2.2936
0.28 0.015 -0.0237714 0.000419088 -0.000120083 2.32896
0.285 0.015 -0.024173 0.000425602 -0.000122197 2.36475
0.29 0.015 -0.0245796 0.000430896 -0.00012434 2.40084
0.295 0.015 -0.0249899 0.000434986 -0.000126506 2.43713
0.3 0.015 -0.0254029 0.000437888 -0.00012869 2.47351
0.305 0.015 -0.0258173 0.000439614 -0.000130885 2.50987
0.31 0.015 -0.0262321 0.000440175 -0.000133087 2.5461
0.315 0.015 -0.0266461 0.00043958 -0.000135288 2.58212
0.32 0.015 -0.0270582 0.000437838 -0.000137483 2.61781
0.325 0.015 -0.0274674 0.000434958 -0.000139667 2.65307
0.33 0.015 -0.0278725 0.000430949 -0.000141833 2.68781
0.335 0.015 -0.0282725 0.00042582 -0.000143977 2.72193
0.34 0.015 -0.0286664 0.000419581 -0.000146092 2.75534
0.345 0.015 -0.029053 0.000412245 -0.000148173 2.78795
0.35 0.015 -0.0294313 0.000403823 -0.000150215 2.81966
0.355 0.015 -0.0298005 0.000394331 -0.000152212 2.85039
0.36 0.015 -0.0301593 0.000383784 -0.000154159 2.88006
0.365 0.015 -0.030507 0.000372201 -0.000156051 2.90858
0.37 0.015 -0.0308425 0.000359602 -0.000157882 2.93587
0.375 0.015 -0.0311648 0.00034601 -0.000159648 2.96186
0.38 0.015 -0.0314732 0.000331449 -0.000161343 2.98646
0.385 0.015 -0.0317667 0.000315947 -0.000162964 3.00962
0.39 0.015 -0.0320445 0.000299533 -0.000164504 3.03126
0.395 0.015 -0.0323057 0.00028224 -0.00016596 3.05131
0.4 0.015 -0.0325497 0.000264102 -0.000167328 3.06972
0.405 0.015 -0.0327755 0.000245157 -0.000168602 3.08643
0.41 0.015 -0.0329826 0.000225443 -0.00016978 3.10139
0.415 0.015 -0.0331703 0.000205003 -0.000170858 3.11453
0.42 0.015 -0.0333379 0.000183881 -0.000171832 3.12583
0.425 0.015 -0.0334849 0.000162122 -0.000172698 3.13524
0.43 0.015 -0.0336107 0.000139777 -0.000173454 3.14271
0.435 0.015 -0.0337149 0.000116895 -0.000174097 3.14823
0.44 0.015 -0.033797 9.35285e-05 -0.000174625 3.15175
0.445 0.015 -0.0338566 6.97319e-05 -0.000175034 3.15326
0.45 0.015 -0.0338934 4.55608e-05 -0.000175324 3.15274
0.455 0.015 -0.0339071 2.10726e-05 -0.000175491 3.15017
0.46 0.015 -0.0338976 -3.67459e-06 -0.000175536 3.14554
0.465 0.015 -0.0338645 -2.86212e-05 -0.000175456 3.13885
0.47 0.015 -0.0338079 -5.3707e-05 -0.000175251 3.13009
0.475 0.015 -0.0337276 -7.88711e-05 -0.000174921 3.11928
0.48 0.015 -0.0336237 -0.000104052 -0.000174464 3.10641
0.485 0.015 -0.0334961 -0.000129189 -0.000173882 3.09151
0.49 0.015 -0.0333451 -0.000154219 -0.000173174 3.07459
0.495 0.015 -0.0331708 -0.000179083 -0.000172341 3.05568
0.5 0.015 -0.0329733 -0.000203718 -0.000171385 3.03479
0.505 0.015 -0.0327531 -0.000228066 -0.000170306 3.01196
0.51 0.015 -0.0325103 -0.000252067 -0.000169106 2.98723
0.515 0.015 -0.0322455 -0.000275663 -0.000167787 2.96064
0.52 0.015 -0.031959 -0.000298798 -0.000166351 2.93222
0.525 0.015 -0.0316512 -0.000321417 -0.000164801 2.90203
0.53 0.015 -0.0313229 -0.000343468 -0.000163139 2.87012
0.535 0.015 -0.0309744 -0.000364899 -0.000161368 2.83653
0.54 0.015 -0.0306065 -0.000385662 -0.000159491 2.80134
0.545 0.015 -0.0302198 -0.000405712 -0.000157513 2.76459
0.55 0.015 -0.029815 -0.000425003 -0.000155436 2.72635
0.555 0.015 -0.0293928 -0.000443496 -0.000153264 2.68668
0.56 0.015 -0.0289541 -0.000461154 -0.000151003 2.64566
0.565 0.015 -0.0284995 -0.000477941 -0.000148655 2.60336
0.57 0.015 -0.0280301 -0.000493826 -0.000146225 2.55984
0.575 0.015 -0.0275465 -0.000508781 -0.000143718 2.51518
0.58 0.015 -0.0270497 -0.000522781 -0.000141139 2.46946
0.585 0.015 -0.0265407 -0.000535806 -0.000138492 2.42274
0.59 0.015 -0.0260202 -0.000547836 -0.000135782 2.37512
0.595 0.015 -0.0254893 -0.000558859 -0.000133015 2.32667
0.6 0.015 -0.0249489 -0.000568862 -0.000130195 2.27747
0.605 0.015 -0.0243999 -0.00057784 -0.000127327 2.22759
0.61 0.015 -0.0238433 -0.000585789 -0.000124418 2.17711
0.615 0.015 -0.02328 -0.000592708 -0.000121471 2.12613
0.62 0.015 -0.0227111 -0.0005986 -0.000118492 2.0747
0.625 0.015 -0.0221373 -0.000603472 -0.000115486 2.02292
0.63 0.015 -0.0215597 -0.000607335 -0.000112459 1.97086
0.635 0.015 -0.0209792 -0.0006102 -0.000109414 1.91859
0.64 0.015 -0.0203967 -0.000612083 -0.000106358 1.86619
0.645 0.015 -0.0198131 -0.000613004 -0.000103294 1.81374
0.65 0.015 -0.0192293 -0.000612983 -0.000100229 1.76131
0.655 0.015 -0.0186461 -0.000612044 -9.71656e-05 1.70896
0.66 0.015 -0.0180644 -0.000610213 -9.41093e-05 1.65676
0.665 0.015 -0.0174849 -0.000607519 -9.10644e-05 1.60479
0.67 0.015 -0.0169085 -0.000603992 -8.80351e-05 1.55311
0.675 0.015 -0.0163359 -0.000599664 -8.50254e-05 1.50177
0.68 0.015 -0.0157678 -0.000594567 -8.20393e-05 1.45084
0.685 0.015 -0.0152049 -0.000588738 -7.90805e-05 1.40037
0.69 0.015 -0.0146478 -0.000582212 -7.61526e-05 1.35043
0.695 0.015 -0.0140973 -0.000575025 -7.32591e-05 1.30105
0.7 0.015 -0.0135539 -0.000567216 -7.04031e-05 1.2523
0.705 0.015 -0.0130181 -0.000558822 -6.75876e-05 1.20421
0.71 0.015 -0.0124905 -0.000549882 -6.48154e-05 1.15683
0.715 0.015 -0.0119715 -0.000540435 -6.20893e-05 1.1102
0.72 0.015 -0.0114616 -0.000530518 -5.94116e-05 1.06437
0.725 0.015 -0.0109613 -0.00052017 -5.67846e-05 1.01936
0.73 0.015 -0.0104708 -0.00050943 -5.42104e-05 0.975203
0.735 0.015 -0.00999065 -0.000498334 -5.16907e-05 0.931936
0.74 0.015 -0.00952104 -0.000486918 -4.92274e-05 0.889585
0.745 0.015 -0.00906228 -0.00047522 -4.68219e-05 0.848173
0.75 0.015 -0.00861463 -0.000463273 -4.44755e-05 0.807722
0.755 0.015 -0.00817829 -0.000451112 -4.21895e-05 0.768252
0.76 0.015 -0.00775346 -0.000438768 -3.99647e-05 0.72978
0.765 0.015 -0.0073403 -0.000426274 -3.7802e-05 0.69232
0.77 0.015 -0.00693894 -0.000413659 -3.57022e-05 0.655886
0.775 0.015 -0.00654948 -0.000400953 -3.36656e-05 0.620487
0.78 0.015 -0.00617201 -0.000388181 -3.16928e-05 0.586131
0.785 0.015 -0.00580656 -0.000375371 -2.9784e-05 0.552824
0.79 0.015 -0.00545318 -0.000362546 -2.79392e-05 0.520571
0.795 0.015 -0.00511188 -0.000349729 -2.61586e-05 0.489373
0.8 0.015 -0.00478264 -0.000336941 -2.4442e-05 0.459233
0.805 0.015 -0.00446543 -0.000324202 -2.27893e-05 0.430148
0.81 0.015 -0.00416021 -0.000311529 -2.12001e-05 0.402116
0.815 0.015 -0.00386691 -0.00029894 -1.9674e-05 0.375134
0.82 0.015 -0.00358546 -0.00028645 -1.82107e-05 0.349196
0.825 0.015 -0.00331576 -0.000274071 -1.68095e-05 0.324297