Title=" Lid Driven Flow"
VARIABLES="X","Y","U","V","psi","xi"
ZONE T= "BOX", I= 201, J=201, F=POINT
0 0 0 0 0.0024916 0
0.005 0 0 0 0 0
0.01 0 0 0 0 0
0.015 0 0 0 0 161.891
0.02 0 0 0 0 176.125
0.025 0 0 0 0 155.609
0.03 0 0 0 0 133.225
0.035 0 0 0 0 115.712
0.04 0 0 0 0 102.864
0.045 0 0 0 0 93.3357
0.05 0 0 0 0 86.016
0.055 0 0 0 0 80.1716
0.06 0 0 0 0 75.344
0.065 0 0 0 0 71.2446
0.07 0 0 0 0 67.6857
0.075 0 0 0 0 64.5413
0.08 0 0 0 0 61.7233
0.085 0 0 0 0 59.1687
0.09 0 0 0 0 56.831
0.095 0 0 0 0 54.6754
0.1 0 0 0 0 52.6752
0.105 0 0 0 0 50.8098
0.11 0 0 0 0 49.0626
0.115 0 0 0 0 47.4207
0.12 0 0 0 0 45.8731
0.125 0 0 0 0 44.411
0.13 0 0 0 0 43.027
0.135 0 0 0 0 41.7146
0.14 0 0 0 0 40.4683
0.145 0 0 0 0 39.2833
0.15 0 0 0 0 38.1551
0.155 0 0 0 0 37.08
0.16 0 0 0 0 36.0545
0.165 0 0 0 0 35.0752
0.17 0 0 0 0 34.1393
0.175 0 0 0 0 33.2439
0.18 0 0 0 0 32.3866
0.185 0 0 0 0 31.5648
0.19 0 0 0 0 30.7765
0.195 0 0 0 0 30.0193
0.2 0 0 0 0 29.2915
0.205 0 0 0 0 28.5909
0.21 0 0 0 0 27.916
0.215 0 0 0 0 27.2649
0.22 0 0 0 0 26.6361
0.225 0 0 0 0 26.028
0.23 0 0 0 0 25.4393
0.235 0 0 0 0 24.8686
0.24 0 0 0 0 24.3146
0.245 0 0 0 0 23.7762
0.25 0 0 0 0 23.2521
0.255 0 0 0 0 22.7413
0.26 0 0 0 0 22.2429
0.265 0 0 0 0 21.7558
0.27 0 0 0 0 21.2792
0.275 0 0 0 0 20.8123
0.28 0 0 0 0 20.3543
0.285 0 0 0 0 19.9044
0.29 0 0 0 0 19.4621
0.295 0 0 0 0 19.0266
0.3 0 0 0 0 18.5975
0.305 0 0 0 0 18.1742
0.31 0 0 0 0 17.7562
0.315 0 0 0 0 17.3431
0.32 0 0 0 0 16.9344
0.325 0 0 0 0 16.53
0.33 0 0 0 0 16.1293
0.335 0 0 0 0 15.7322
0.34 0 0 0 0 15.3384
0.345 0 0 0 0 14.9477
0.35 0 0 0 0 14.56
0.355 0 0 0 0 14.1751
0.36 0 0 0 0 13.7928
0.365 0 0 0 0 13.4132
0.37 0 0 0 0 13.0361
0.375 0 0 0 0 12.6616
0.38 0 0 0 0 12.2897
0.385 0 0 0 0 11.9203
0.39 0 0 0 0 11.5536
0.395 0 0 0 0 11.1896
0.4 0 0 0 0 10.8285
0.405 0 0 0 0 10.4703
0.41 0 0 0 0 10.1152
0.415 0 0 0 0 9.76328
0.42 0 0 0 0 9.4148
0.425 0 0 0 0 9.0699
0.43 0 0 0 0 8.72878
0.435 0 0 0 0 8.39164
0.44 0 0 0 0 8.05869
0.445 0 0 0 0 7.73016
0.45 0 0 0 0 7.40625
0.455 0 0 0 0 7.08721
0.46 0 0 0 0 6.77324
0.465 0 0 0 0 6.46459
0.47 0 0 0 0 6.16146
0.475 0 0 0 0 5.86409
0.48 0 0 0 0 5.57268
0.485 0 0 0 0 5.28743
0.49 0 0 0 0 5.00855
0.495 0 0 0 0 4.73621
0.5 0 0 0 0 4.47061
0.505 0 0 0 0 4.21188
0.51 0 0 0 0 3.96019
0.515 0 0 0 0 3.71566
0.52 0 0 0 0 3.47841
0.525 0 0 0 0 3.24853
0.53 0 0 0 0 3.02612
0.535 0 0 0 0 2.81123
0.54 0 0 0 0 2.6039
0.545 0 0 0 0 2.40416
0.55 0 0 0 0 2.21203
0.555 0 0 0 0 2.02749
0.56 0 0 0 0 1.85051
0.565 0 0 0 0 1.68106
0.57 0 0 0 0 1.51905
0.575 0 0 0 0 1.36442
0.58 0 0 0 0 1.21707
0.585 0 0 0 0 1.0769
0.59 0 0 0 0 0.943767
0.595 0 0 0 0 0.817548
0.6 0 0 0 0 0.698091
0.605 0 0 0 0 0.585236
0.61 0 0 0 0 0.478813
0.615 0 0 0 0 0.378647
0.62 0 0 0 0 0.28455
0.625 0 0 0 0 0.196332
0.63 0 0 0 0 0.113795
0.635 0 0 0 0 0.0367382
0.64 0 0 0 0 -0.0350422
0.645 0 0 0 0 -0.101753
0.65 0 0 0 0 -0.163603
0.655 0 0 0 0 -0.2208
0.66 0 0 0 0 -0.273553
0.665 0 0 0 0 -0.32207
0.67 0 0 0 0 -0.366558
0.675 0 0 0 0 -0.407222
0.68 0 0 0 0 -0.444266
0.685 0 0 0 0 -0.477888
0.69 0 0 0 0 -0.508288
0.695 0 0 0 0 -0.535659
0.7 0 0 0 0 -0.560192
0.705 0 0 0 0 -0.582073
0.71 0 0 0 0 -0.601484
0.715 0 0 0 0 -0.618603
0.72 0 0 0 0 -0.6336
0.725 0 0 0 0 -0.64664
0.73 0 0 0 0 -0.657881
0.735 0 0 0 0 -0.667473
0.74 0 0 0 0 -0.675558
0.745 0 0 0 0 -0.682268
0.75 0 0 0 0 -0.687726
0.755 0 0 0 0 -0.692042
0.76 0 0 0 0 -0.695317
0.765 0 0 0 0 -0.697638
0.77 0 0 0 0 -0.69908
0.775 0 0 0 0 -0.699706
0.78 0 0 0 0 -0.699565
0.785 0 0 0 0 -0.698693
0.79 0 0 0 0 -0.697113
0.795 0 0 0 0 -0.694837
0.8 0 0 0 0 -0.691862
0.805 0 0 0 0 -0.688177
0.81 0 0 0 0 -0.683759
0.815 0 0 0 0 -0.678578
0.82 0 0 0 0 -0.672593
0.825 0 0 0 0 -0.66576
0.83 0 0 0 0 -0.658029
0.835 0 0 0 0 -0.649345
0.84 0 0 0 0 -0.639654
0.845 0 0 0 0 -0.628903
0.85 0 0 0 0 -0.617038
0.855 0 0 0 0 -0.604011
0.86 0 0 0 0 -0.589781
0.865 0 0 0 0 -0.574312
0.87 0 0 0 0 -0.55758
0.875 0 0 0 0 -0.539569
0.88 0 0 0 0 -0.520279
0.885 0 0 0 0 -0.499722
0.89 0 0 0 0 -0.477925
0.895 0 0 0 0 -0.454935
0.9 0 0 0 0 -0.430814
0.905 0 0 0 0 -0.405644
0.91 0 0 0 0 -0.379526
0.915 0 0 0 0 -0.352585
0.92 0 0 0 0 -0.324963
0.925 0 0 0 0 -0.296827
0.93 0 0 0 0 -0.268364
0.935 0 0 0 0 -0.239787
0.94 0 0 0 0 -0.211328
0.945 0 0 0 0 -0.183247
0.95 0 0 0 0 -0.155826
0.955 0 0 0 0 -0.129371
0.96 0 0 0 0 -0.104214
0.965 0 0 0 0 -0.0807141
0.97 0 0 0 0 -0.0592536
0.975 0 0 0 0 -0.0402394
0.98 0 0 0 0 -0.0240959
0.985 0 0 0 0 -0.0112502
0.99 0 0 0 0 -0.00209629
0.995 0 0 0 0 0.00309071
1 0 0 0 0 0.00435204
0 0.005 0 0 0 0
0.005 0.005 0 0 0 0
0.01 0.005 0 0 0 73.7274
0.015 0.005 0 0 0 62.0484
0.02 0.005 0 0 0 45.674
0.025 0.005 0 0 0 33.8918
0.03 0.005 0 0 0 25.9974
0.035 0.005 0 0 0 20.5894
0.04 0.005 0 0 0 16.7216
0.045 0.005 0 0 0 13.8372
0.05 0.005 0 0 0 11.612
0.055 0.005 0 0 0 9.85086
0.06 0.005 0 0 0 8.43085
0.065 0.005 0 0 0 7.27032
0.07 0.005 0 0 0 6.31258
0.075 0.005 0 0 0 5.51658
0.08 0.005 0 0 0 4.85162
0.085 0.005 0 0 0 4.29408
0.09 0.005 0 0 0 3.82541
0.095 0.005 0 0 0 3.43079
0.1 0.005 0 0 0 3.09825
0.105 0.005 0 0 0 2.818
0.11 0.005 0 0 0 2.58201
0.115 0.005 0 0 0 2.38362
0.12 0.005 0 0 0 2.2173
0.125 0.005 0 0 0 2.07843
0.13 0.005 0 0 0 1.96314
0.135 0.005 0 0 0 1.86821
0.14 0.005 0 0 0 1.79089
0.145 0.005 0 0 0 1.7289
0.15 0.005 0 0 0 1.68028
0.155 0.005 0 0 0 1.64342
0.16 0.005 0 0 0 1.6169
0.165 0.005 0 0 0 1.59957
0.17 0.005 0 0 0 1.5904
0.175 0.005 0 0 0 1.58855
0.18 0.005 0 0 0 1.59329
0.185 0.005 0 0 0 1.604
0.19 0.005 0 0 0 1.62014
0.195 0.005 0 0 0 1.64124
0.2 0.005 0 0 0 1.66692
0.205 0.005 0 0 0 1.69682
0.21 0.005 0 0 0 1.73065
0.215 0.005 0 0 0 1.76813
0.22 0.005 0 0 0 1.80903
0.225 0.005 0 0 0 1.85314
0.23 0.005 0 0 0 1.90027
0.235 0.005 0 0 0 1.95024
0.24 0.005 0 0 0 2.00289
0.245 0.005 0 0 0 2.05808
0.25 0.005 0 0 0 2.11566
0.255 0.005 0 0 0 2.1755
0.26 0.005 0 0 0 2.23746
0.265 0.005 0 0 0 2.30142
0.27 0.005 0 0 0 2.36725
0.275 0.005 0 0 0 2.43484
0.28 0.005 0 0 0 2.50405
0.285 0.005 0 0 0 2.57476
0.29 0.005 0 0 0 2.64684
0.295 0.005 0 0 0 2.72018
0.3 0.005 0 0 0 2.79463
0.305 0.005 0 0 0 2.87006
0.31 0.005 0 0 0 2.94635
0.315 0.005 0 0 0 3.02336
0.32 0.005 0 0 0 3.10094
0.325 0.005 0 0 0 3.17895
0.33 0.005 0 0 0 3.25726
0.335 0.005 0 0 0 3.3357
0.34 0.005 0 0 0 3.41413
0.345 0.005 0 0 0 3.4924
0.35 0.005 0 0 0 3.57035
0.355 0.005 0 0 0 3.64783
0.36 0.005 0 0 0 3.72467
0.365 0.005 0 0 0 3.80071
0.37 0.005 0 0 0 3.8758
0.375 0.005 0 0 0 3.94976
0.38 0.005 0 0 0 4.02244
0.385 0.005 0 0 0 4.09367
0.39 0.005 0 0 0 4.16328
0.395 0.005 0 0 0 4.23113
0.4 0.005 0 0 0 4.29703
0.405 0.005 0 0 0 4.36084
0.41 0.005 0 0 0 4.42239
0.415 0.005 0 0 0 4.48153
0.42 0.005 0 0 0 4.53811
0.425 0.005 0 0 0 4.59197
0.43 0.005 0 0 0 4.64298
0.435 0.005 0 0 0 4.69098
0.44 0.005 0 0 0 4.73584
0.445 0.005 0 0 0 4.77744
0.45 0.005 0 0 0 4.81564
0.455 0.005 0 0 0 4.85032
0.46 0.005 0 0 0 4.88138
0.465 0.005 0 0 0 4.9087
0.47 0.005 0 0 0 4.93219
0.475 0.005 0 0 0 4.95176
0.48 0.005 0 0 0 4.96732
0.485 0.005 0 0 0 4.97881
0.49 0.005 0 0 0 4.98615
0.495 0.005 0 0 0 4.9893
0.5 0.005 0 0 0 4.9882
0.505 0.005 0 0 0 4.98283
0.51 0.005 0 0 0 4.97316
0.515 0.005 0 0 0 4.95916
0.52 0.005 0 0 0 4.94085
0.525 0.005 0 0 0 4.91823
0.53 0.005 0 0 0 4.8913
0.535 0.005 0 0 0 4.86011
0.54 0.005 0 0 0 4.8247
0.545 0.005 0 0 0 4.7851
0.55 0.005 0 0 0 4.74139
0.555 0.005 0 0 0 4.69363
0.56 0.005 0 0 0 4.64191
0.565 0.005 0 0 0 4.58632
0.57 0.005 0 0 0 4.52697
0.575 0.005 0 0 0 4.46397
0.58 0.005 0 0 0 4.39744
0.585 0.005 0 0 0 4.32751
0.59 0.005 0 0 0 4.25433
0.595 0.005 0 0 0 4.17804
0.6 0.005 0 0 0 4.0988
0.605 0.005 0 0 0 4.01677
0.61 0.005 0 0 0 3.93214
0.615 0.005 0 0 0 3.84507
0.62 0.005 0 0 0 3.75575
0.625 0.005 0 0 0 3.66436
0.63 0.005 0 0 0 3.5711
0.635 0.005 0 0 0 3.47616
0.64 0.005 0 0 0 3.37975
0.645 0.005 0 0 0 3.28206
0.65 0.005 0 0 0 3.18329
0.655 0.005 0 0 0 3.08365
0.66 0.005 0 0 0 2.98334
0.665 0.005 0 0 0 2.88256
0.67 0.005 0 0 0 2.78151
0.675 0.005 0 0 0 2.68039
0.68 0.005 0 0 0 2.57939
0.685 0.005 0 0 0 2.4787
0.69 0.005 0 0 0 2.37851
0.695 0.005 0 0 0 2.279
0.7 0.005 0 0 0 2.18034
0.705 0.005 0 0 0 2.08271
0.71 0.005 0 0 0 1.98626
0.715 0.005 0 0 0 1.89116
0.72 0.005 0 0 0 1.79754
0.725 0.005 0 0 0 1.70556
0.73 0.005 0 0 0 1.61534
0.735 0.005 0 0 0 1.527
0.74 0.005 0 0 0 1.44067
0.745 0.005 0 0 0 1.35644
0.75 0.005 0 0 0 1.27441
0.755 0.005 0 0 0 1.19467
0.76 0.005 0 0 0 1.1173
0.765 0.005 0 0 0 1.04237
0.77 0.005 0 0 0 0.969927
0.775 0.005 0 0 0 0.900036
0.78 0.005 0 0 0 0.832735
0.785 0.005 0 0 0 0.768055
0.79 0.005 0 0 0 0.706023
0.795 0.005 0 0 0 0.646655
0.8 0.005 0 0 0 0.589959
0.805 0.005 0 0 0 0.535938
0.81 0.005 0 0 0 0.484584
0.815 0.005 0 0 0 0.435885
0.82 0.005 0 0 0 0.389821
0.825 0.005 0 0 0 0.346367
0.83 0.005 0 0 0 0.305492
0.835 0.005 0 0 0 0.267159
0.84 0.005 0 0 0 0.231327
0.845 0.005 0 0 0 0.197951
0.85 0.005 0 0 0 0.166979
0.855 0.005 0 0 0 0.13836
0.86 0.005 0 0 0 0.112037
0.865 0.005 0 0 0 0.0879493
0.87 0.005 0 0 0 0.0660365
0.875 0.005 0 0 0 0.0462342
0.88 0.005 0 0 0 0.0284767
0.885 0.005 0 0 0 0.0126968
0.89 0.005 0 0 0 -0.00117415
0.895 0.005 0 0 0 -0.0132059
0.9 0.005 0 0 0 -0.0234692
0.905 0.005 0 0 0 -0.0320357
0.91 0.005 0 0 0 -0.0389782
0.915 0.005 0 0 0 -0.0443707
0.92 0.005 0 0 0 -0.0482887
0.925 0.005 0 0 0 -0.0508096
0.93 0.005 0 0 0 -0.0520134
0.935 0.005 0 0 0 -0.0519835
0.94 0.005 0 0 0 -0.0508083
0.945 0.005 0 0 0 -0.0485823
0.95 0.005 0 0 0 -0.0454088
0.955 0.005 0 0 0 -0.0414023
0.96 0.005 0 0 0 -0.0366927
0.965 0.005 0 0 0 -0.0314302
0.97 0.005 0 0 0 -0.0257923
0.975 0.005 0 0 0 -0.0199921
0.98 0.005 0 0 0 -0.0142907
0.985 0.005 0 0 0 -0.00901032
0.99 0.005 0 0 0 -0.00454541
0.995 0.005 0 0 0 -0.00135242
1 0.005 0 0 0 0.00015032
0 0.01 0 0 0.00015032 0
0.005 0.01 0 0 0 -326.273
0.01 0.01 -0.180021 0.0775605 -0.000921593 -44.4222
0.015 0.01 -0.184762 -0.0350667 -0.000775605 9.50856
0.02 0.01 -0.156199 -0.0351958 -0.000570926 19.1018
0.025 0.01 -0.127328 -0.0245958 -0.000423648 18.9832
0.03 0.01 -0.103956 -0.016628 -0.000324968 16.8281
0.035 0.01 -0.085832 -0.0115949 -0.000257368 14.5135
0.04 0.01 -0.071745 -0.00844033 -0.000209019 12.4682
0.045 0.01 -0.0606313 -0.006387 -0.000172964 10.745
0.05 0.01 -0.0517171 -0.00498287 -0.000145149 9.30695
0.055 0.01 -0.0444625 -0.00397638 -0.000123136 8.1047
0.06 0.01 -0.0384894 -0.00322567 -0.000105386 7.09467
0.065 0.01 -0.0335273 -0.00264783 -9.08789e-05 6.24198
0.07 0.01 -0.0293772 -0.00219216 -7.89071e-05 5.51919
0.075 0.01 -0.0258892 -0.00182618 -6.89572e-05 4.90462
0.08 0.01 -0.0229471 -0.00152811 -6.06452e-05 4.38093
0.085 0.01 -0.0204593 -0.00128276 -5.3676e-05 3.93409
0.09 0.01 -0.0183523 -0.00107911 -4.78175e-05 3.55256
0.095 0.01 -0.0165664 -0.000908943 -4.28848e-05 3.2268
0.1 0.01 -0.0150523 -0.000765973 -3.8728e-05 2.94883
0.105 0.01 -0.0137695 -0.000645281 -3.52249e-05 2.71195
0.11 0.01 -0.0126842 -0.000542964 -3.2275e-05 2.51049
0.115 0.01 -0.0117681 -0.000455881 -2.97952e-05 2.33964
0.12 0.01 -0.0109972 -0.000381483 -2.77161e-05 2.19533
0.125 0.01 -0.0103518 -0.000317684 -2.59802e-05 2.07408
0.13 0.01 -0.0098147 -0.000262766 -2.45392e-05 1.97292
0.135 0.01 -0.00937175 -0.000215307 -2.33525e-05 1.88931
0.14 0.01 -0.00901079 -0.000174128 -2.2386e-05 1.82109
0.145 0.01 -0.0087215 -0.000138245 -2.16111e-05 1.7664
0.15 0.01 -0.00849514 -0.000106837 -2.10035e-05 1.72365
0.155 0.01 -0.00832426 -7.92161e-05 -2.05426e-05 1.69147
0.16 0.01 -0.00820248 -5.48063e-05 -2.02112e-05 1.66868
0.165 0.01 -0.00812438 -3.31234e-05 -1.99945e-05 1.65428
0.17 0.01 -0.00808532 -1.37609e-05 -1.98799e-05 1.64739
0.175 0.01 -0.00808131 3.62335e-06 -1.98568e-05 1.64727
0.18 0.01 -0.00810892 1.93171e-05 -1.99161e-05 1.65326
0.185 0.01 -0.00816521 3.35623e-05 -2.00499e-05 1.66481
0.19 0.01 -0.00824765 4.65624e-05 -2.02516e-05 1.68141
0.195 0.01 -0.00835402 5.84882e-05 -2.05155e-05 1.70265
0.2 0.01 -0.0084824 6.94829e-05 -2.08364e-05 1.72815
0.205 0.01 -0.00863111 7.96664e-05 -2.12102e-05 1.75759
0.21 0.01 -0.00879869 8.91386e-05 -2.16331e-05 1.79066
0.215 0.01 -0.00898382 9.79829e-05 -2.21016e-05 1.82711
0.22 0.01 -0.00918534 0.000106268 -2.26128e-05 1.86671
0.225 0.01 -0.00940219 0.000114051 -2.31642e-05 1.90925
0.23 0.01 -0.00963343 0.000121378 -2.37533e-05 1.95453
0.235 0.01 -0.00987819 0.000128286 -2.43779e-05 2.00238
0.24 0.01 -0.0101356 0.000134807 -2.50361e-05 2.05263
0.245 0.01 -0.010405 0.000140963 -2.5726e-05 2.10513
0.25 0.01 -0.0106857 0.000146773 -2.64457e-05 2.15973
0.255 0.01 -0.0109768 0.00015225 -2.71937e-05 2.2163
0.26 0.01 -0.0112779 0.000157406 -2.79682e-05 2.27469
0.265 0.01 -0.0115881 0.000162246 -2.87677e-05 2.33477
0.27 0.01 -0.011907 0.000166774 -2.95907e-05 2.39641
0.275 0.01 -0.0122338 0.000170992 -3.04355e-05 2.45949
0.28 0.01 -0.0125679 0.000174899 -3.13006e-05 2.52388
0.285 0.01 -0.0129088 0.000178493 -3.21845e-05 2.58945
0.29 0.01 -0.0132557 0.00018177 -3.30856e-05 2.65607
0.295 0.01 -0.0136081 0.000184727 -3.40022e-05 2.72361
0.3 0.01 -0.0139652 0.000187358 -3.49329e-05 2.79195
0.305 0.01 -0.0143265 0.000189656 -3.58758e-05 2.86095
0.31 0.01 -0.0146912 0.000191615 -3.68295e-05 2.93049
0.315 0.01 -0.0150587 0.000193229 -3.7792e-05 3.00042
0.32 0.01 -0.0154284 0.00019449 -3.87618e-05 3.07062
0.325 0.01 -0.0157994 0.000195392 -3.9737e-05 3.14095
0.33 0.01 -0.0161711 0.000195927 -4.07158e-05 3.21126
0.335 0.01 -0.0165428 0.000196088 -4.16963e-05 3.28142
0.34 0.01 -0.0169138 0.000195871 -4.26768e-05 3.35129
0.345 0.01 -0.0172832 0.000195267 -4.36551e-05 3.42073
0.35 0.01 -0.0176505 0.000194273 -4.46295e-05 3.48959
0.355 0.01 -0.0180147 0.000192882 -4.5598e-05 3.55773
0.36 0.01 -0.0183752 0.000191091 -4.65585e-05 3.625
0.365 0.01 -0.0187312 0.000188897 -4.7509e-05 3.69127
0.37 0.01 -0.0190819 0.000186296 -4.84476e-05 3.75638
0.375 0.01 -0.0194265 0.000183288 -4.93721e-05 3.8202
0.38 0.01 -0.0197644 0.00017987 -5.02806e-05 3.88258
0.385 0.01 -0.0200946 0.000176043 -5.1171e-05 3.94337
0.39 0.01 -0.0204166 0.000171808 -5.20412e-05 4.00245
0.395 0.01 -0.0207294 0.000167167 -5.28892e-05 4.05966
0.4 0.01 -0.0210324 0.000162124 -5.37131e-05 4.11487
0.405 0.01 -0.0213248 0.000156683 -5.45107e-05 4.16796
0.41 0.01 -0.021606 0.000150848 -5.52801e-05 4.21878
0.415 0.01 -0.0218751 0.000144628 -5.60194e-05 4.26721
0.42 0.01 -0.0221315 0.000138029 -5.67266e-05 4.31312
0.425 0.01 -0.0223745 0.000131061 -5.73999e-05 4.3564
0.43 0.01 -0.0226035 0.000123733 -5.80375e-05 4.39692
0.435 0.01 -0.0228179 0.000116058 -5.86375e-05 4.43458
0.44 0.01 -0.0230169 0.000108047 -5.91983e-05 4.46927
0.445 0.01 -0.0232001 9.9715e-05 -5.97182e-05 4.50089
0.45 0.01 -0.0233669 9.10762e-05 -6.01957e-05 4.52935
0.455 0.01 -0.0235167 8.21469e-05 -6.06293e-05 4.55454
0.46 0.01 -0.0236491 7.29442e-05 -6.10175e-05 4.5764
0.465 0.01 -0.0237637 6.34864e-05 -6.1359e-05 4.59485
0.47 0.01 -0.0238599 5.37927e-05 -6.16527e-05 4.60981
0.475 0.01 -0.0239375 4.38837e-05 -6.18973e-05 4.62122
0.48 0.01 -0.023996 3.37804e-05 -6.20918e-05 4.62904
0.485 0.01 -0.0240352 2.35051e-05 -6.22354e-05 4.63321
0.49 0.01 -0.0240549 1.3081e-05 -6.23272e-05 4.63369
0.495 0.01 -0.0240547 2.53171e-06 -6.23666e-05 4.63046
0.5 0.01 -0.0240346 -8.11801e-06 -6.23529e-05 4.62349
0.505 0.01 -0.0239944 -1.8843e-05 -6.22857e-05 4.61276
0.51 0.01 -0.023934 -2.96174e-05 -6.21648e-05 4.59828
0.515 0.01 -0.0238535 -4.0415e-05 -6.19899e-05 4.58005
0.52 0.01 -0.0237528 -5.1209e-05 -6.1761e-05 4.55808
0.525 0.01 -0.0236319 -6.19724e-05 -6.14782e-05 4.53238
0.53 0.01 -0.0234911 -7.2678e-05 -6.11417e-05 4.503
0.535 0.01 -0.0233305 -8.32984e-05 -6.07518e-05 4.46996
0.54 0.01 -0.0231503 -9.38063e-05 -6.03091e-05 4.43332
0.545 0.01 -0.0229507 -0.000104174 -5.98141e-05 4.39312
0.55 0.01 -0.0227322 -0.000114376 -5.92677e-05 4.34945
0.555 0.01 -0.022495 -0.000124383 -5.86708e-05 4.30236
0.56 0.01 -0.0222395 -0.000134171 -5.80243e-05 4.25194
0.565 0.01 -0.0219663 -0.000143712 -5.73295e-05 4.19829
0.57 0.01 -0.0216758 -0.000152983 -5.65876e-05 4.14148
0.575 0.01 -0.0213685 -0.000161958 -5.58e-05 4.08164
0.58 0.01 -0.0210451 -0.000170614 -5.49684e-05 4.01887
0.585 0.01 -0.0207061 -0.000178929 -5.40943e-05 3.95329
0.59 0.01 -0.0203523 -0.00018688 -5.31795e-05 3.88503
0.595 0.01 -0.0199843 -0.000194449 -5.22258e-05 3.81421
0.6 0.01 -0.019603 -0.000201615 -5.12353e-05 3.74098
0.605 0.01 -0.0192089 -0.000208361 -5.02101e-05 3.66547
0.61 0.01 -0.018803 -0.00021467 -4.91521e-05 3.58784
0.615 0.01 -0.0183861 -0.000220529 -4.80637e-05 3.50824
0.62 0.01 -0.017959 -0.000225924 -4.69472e-05 3.42681
0.625 0.01 -0.0175226 -0.000230844 -4.58048e-05 3.34373
0.63 0.01 -0.0170778 -0.000235278 -4.46391e-05 3.25915
0.635 0.01 -0.0166254 -0.00023922 -4.34524e-05 3.17324
0.64 0.01 -0.0161664 -0.000242664 -4.22472e-05 3.08616
0.645 0.01 -0.0157017 -0.000245604 -4.10261e-05 2.99808
0.65 0.01 -0.0152323 -0.000248039 -3.97915e-05 2.90918
0.655 0.01 -0.014759 -0.000249968 -3.8546e-05 2.8196
0.66 0.01 -0.0142828 -0.000251393 -3.72921e-05 2.72954
0.665 0.01 -0.0138046 -0.000252317 -3.60323e-05 2.63914
0.67 0.01 -0.0133254 -0.000252744 -3.47692e-05 2.54859
0.675 0.01 -0.0128459 -0.000252682 -3.35051e-05 2.45803
0.68 0.01 -0.0123672 -0.000252139 -3.22426e-05 2.36763
0.685 0.01 -0.01189 -0.000251126 -3.0984e-05 2.27756
0.69 0.01 -0.0114153 -0.000249653 -2.97316e-05 2.18795
0.695 0.01 -0.0109439 -0.000247734 -2.84877e-05 2.09897
0.7 0.01 -0.0104765 -0.000245385 -2.72545e-05 2.01075
0.705 0.01 -0.0100139 -0.00024262 -2.6034e-05 1.92345
0.71 0.01 -0.00955695 -0.000239458 -2.48284e-05 1.83718
0.715 0.01 -0.00910628 -0.000235916 -2.36396e-05 1.75209
0.72 0.01 -0.00866259 -0.000232014 -2.24695e-05 1.6683
0.725 0.01 -0.00822652 -0.000227772 -2.13197e-05 1.58592
0.73 0.01 -0.00779867 -0.000223212 -2.01919e-05 1.50507
0.735 0.01 -0.00737962 -0.000218354 -1.90877e-05 1.42584
0.74 0.01 -0.0069699 -0.000213221 -1.80085e-05 1.34834
0.745 0.01 -0.00656999 -0.000207835 -1.69556e-05 1.27265
0.75 0.01 -0.00618034 -0.00020222 -1.59302e-05 1.19887
0.755 0.01 -0.00580135 -0.000196397 -1.49335e-05 1.12705
0.76 0.01 -0.00543341 -0.000190391 -1.39663e-05 1.05728
0.765 0.01 -0.00507681 -0.000184224 -1.30296e-05 0.989606
0.77 0.01 -0.00473186 -0.000177919 -1.21242e-05 0.924089
0.775 0.01 -0.00439879 -0.000171498 -1.12505e-05 0.860773
0.78 0.01 -0.00407781 -0.000164983 -1.04092e-05 0.799697
0.785 0.01 -0.00376906 -0.000158395 -9.60073e-06 0.740893
0.79 0.01 -0.00347269 -0.000151755 -8.82533e-06 0.684384
0.795 0.01 -0.00318877 -0.000145083 -8.08322e-06 0.63019
0.8 0.01 -0.00291736 -0.0001384 -7.37452e-06 0.578321
0.805 0.01 -0.00265847 -0.000131722 -6.69924e-06 0.528783
0.81 0.01 -0.00241208 -0.000125068 -6.05731e-06 0.481575
0.815 0.01 -0.00217814 -0.000118455 -5.44857e-06 0.43669
0.82 0.01 -0.00195658 -0.000111898 -4.87276e-06 0.394116
0.825 0.01 -0.00174728 -0.000105411 -4.32959e-06 0.353835
0.83 0.01 -0.00155011 -9.90097e-05 -3.81864e-06 0.315825
0.835 0.01 -0.00136492 -9.27054e-05 -3.33948e-06 0.280059
0.84 0.01 -0.00119151 -8.65098e-05 -2.89158e-06 0.246506
0.845 0.01 -0.00102969 -8.04336e-05 -2.47436e-06 0.21513
0.85 0.01 -0.000879235 -7.44863e-05 -2.08722e-06 0.185892
0.855 0.01 -0.000739904 -6.86764e-05 -1.72948e-06 0.158751
0.86 0.01 -0.00061144 -6.30113e-05 -1.40043e-06 0.133659
0.865 0.01 -0.000493576 -5.74978e-05 -1.09934e-06 0.11057
0.87 0.01 -0.000386029 -5.21414e-05 -8.2543e-07 0.0894322
0.875 0.01 -0.000288507 -4.69471e-05 -5.77901e-07 0.0701927
0.88 0.01 -0.000200708 -4.19191e-05 -3.55932e-07 0.0527967
0.885 0.01 -0.000122319 -3.70609e-05 -1.58683e-07 0.037187
0.89 0.01 -5.30244e-05 -3.23756e-05 1.47046e-08 0.0233051
0.895 0.01 7.50232e-06 -2.7866e-05 1.65101e-07 0.0110907
0.9 0.01 5.95921e-05 -2.35345e-05 2.93391e-07 0.000482142
0.905 0.01 0.000103583 -1.93836e-05 4.00472e-07 -0.00858401
0.91 0.01 0.000139818 -1.54162e-05 4.87253e-07 -0.0161728
0.915 0.01 0.000168651 -1.16357e-05 5.54658e-07 -0.022351
0.92 0.01 0.000190441 -8.04621e-06 6.03632e-07 -0.0271878
0.925 0.01 0.00020556 -4.65352e-06 6.35142e-07 -0.0307548
0.93 0.01 0.000214395 -1.46525e-06 6.50187e-07 -0.0331269
0.935 0.01 0.00021735 1.50832e-06 6.49812e-07 -0.034383
0.94 0.01 0.000214854 4.2533e-06 6.3512e-07 -0.0346071
0.945 0.01 0.000207366 6.75102e-06 6.07293e-07 -0.0338896
0.95 0.01 0.000195387 8.97649e-06 5.67622e-07 -0.0323289
0.955 0.01 0.00017947 1.08963e-05 5.17539e-07 -0.0300338
0.96 0.01 0.000160237 1.24661e-05 4.58667e-07 -0.0271255
0.965 0.01 0.000138398 1.36264e-05 3.92885e-07 -0.0237409
0.97 0.01 0.000114773 1.42984e-05 3.22408e-07 -0.0200358
0.975 0.01 9.03251e-05 1.43774e-05 2.49905e-07 -0.0161873
0.98 0.01 6.61889e-05 1.37276e-05 1.78636e-07 -0.0123954
0.985 0.01 4.36993e-05 1.21818e-05 1.1263e-07 -0.0088772
0.99 0.01 2.43909e-05 9.57248e-06 5.6818e-08 -0.00584697
0.995 0.01 9.9101e-06 5.8697e-06 1.69051e-08 -0.00345682
1 0.01 1.6863e-06 1.69051e-06 -1.87916e-09 -0.00165141
0 0.015 0 0 -0.00134904 0
0.005 0.015 0 0 0 -255.983
0.01 0.015 -0.152798 0.184762 -0.00180021 -79.2826
0.015 0.015 -0.206085 -0.0238217 -0.00184762 -16.648
0.02 0.015 -0.204354 -0.057434 -0.00156199 2.33246
0.025 0.015 -0.184339 -0.0522434 -0.00127328 7.96534
0.03 0.015 -0.160928 -0.0414957 -0.00103956 9.30295
0.035 0.015 -0.139106 -0.032211 -0.00085832 9.18102
0.04 0.015 -0.12014 -0.0252007 -0.00071745 8.57084
0.045 0.015 -0.104038 -0.0200279 -0.000606313 7.8273
0.05 0.015 -0.0904546 -0.0161688 -0.000517171 7.08393
0.055 0.015 -0.0789912 -0.0132277 -0.000444625 6.38991
0.06 0.015 -0.0692932 -0.0109352 -0.000384894 5.76098
0.065 0.015 -0.0610652 -0.00911218 -0.000335272 5.19944
0.07 0.015 -0.0540664 -0.00763804 -0.000293772 4.70219
0.075 0.015 -0.0481013 -0.00643009 -0.000258892 4.26414
0.08 0.015 -0.04301 -0.00542984 -0.000229471 3.87968
0.085 0.015 -0.0386608 -0.00459474 -0.000204593 3.54329
0.09 0.015 -0.0349445 -0.00389293 -0.000183523 3.24978
0.095 0.015 -0.0317698 -0.00329999 -0.000165663 2.99441
0.1 0.015 -0.0290599 -0.00279678 -0.000150523 2.77291
0.105 0.015 -0.0267501 -0.00236803 -0.000137695 2.58142
0.11 0.015 -0.0247855 -0.00200144 -0.000126842 2.41653
0.115 0.015 -0.0231197 -0.00168695 -0.00011768 2.27521
0.12 0.015 -0.0217128 -0.00141625 -0.000109972 2.15478
0.125 0.015 -0.0205311 -0.0011825 -0.000103517 2.05287
0.13 0.015 -0.0195459 -0.000979972 -9.81467e-05 1.9674
0.135 0.015 -0.0187323 -0.00080388 -9.37172e-05 1.89654
0.14 0.015 -0.0180693 -0.000650216 -9.01075e-05 1.83867
0.145 0.015 -0.0175388 -0.000515606 -8.72147e-05 1.7924
0.15 0.015 -0.0171253 -0.000397209 -8.49511e-05 1.75649
0.155 0.015 -0.0168154 -0.000292629 -8.32422e-05 1.72985
0.16 0.015 -0.0165978 -0.00019984 -8.20245e-05 1.71154
0.165 0.015 -0.0164626 -0.000117129 -8.12435e-05 1.70074
0.17 0.015 -0.0164013 -4.30485e-05 -8.08529e-05 1.6967
0.175 0.015 -0.0164065 2.36281e-05 -8.08128e-05 1.6988
0.18 0.015 -0.016472 8.39375e-05 -8.10889e-05 1.70647
0.185 0.015 -0.0165923 0.000138757 -8.16519e-05 1.71922
0.19 0.015 -0.0167625 0.000188826 -8.24762e-05 1.73661
0.195 0.015 -0.0169785 0.000234772 -8.35399e-05 1.75826
0.2 0.015 -0.0172366 0.000277121 -8.48238e-05 1.78381
0.205 0.015 -0.0175337 0.000316316 -8.63109e-05 1.81298
0.21 0.015 -0.0178668 0.000352728 -8.79867e-05 1.84547
0.215 0.015 -0.0182335 0.000386666 -8.9838e-05 1.88104
0.22 0.015 -0.0186314 0.00041839 -9.18532e-05 1.91947
0.225 0.015 -0.0190585 0.000448112 -9.40218e-05 1.96055
0.23 0.015 -0.0195129 0.000476008 -9.63342e-05 2.00408
0.235 0.015 -0.0199928 0.00050222 -9.87818e-05 2.0499
0.24 0.015 -0.0204966 0.000526864 -0.000101356 2.09782
0.245 0.015 -0.0210229 0.000550031 -0.00010405 2.14771
0.25 0.015 -0.0215701 0.000571793 -0.000106857 2.19939
0.255 0.015 -0.0221369 0.000592204 -0.000109768 2.25275
0.26 0.015 -0.0227219 0.000611303 -0.000112779 2.30762
0.265 0.015 -0.0233238 0.000629119 -0.000115881 2.36388
0.27 0.015 -0.0239413 0.000645669 -0.00011907 2.42139
0.275 0.015 -0.0245732 0.00066096 -0.000122338 2.48002
0.28 0.015 -0.0252182 0.000674994 -0.000125679 2.53965
0.285 0.015 -0.025875 0.000687767 -0.000129088 2.60014
0.29 0.015 -0.0265423 0.000699267 -0.000132557 2.66137
0.295 0.015 -0.0272189 0.000709483 -0.000136081 2.7232
0.3 0.015 -0.0279035 0.000718397 -0.000139652 2.78551
0.305 0.015 -0.0285948 0.00072599 -0.000143265 2.84818
0.31 0.015 -0.0292914 0.000732242 -0.000146912 2.91106
0.315 0.015 -0.0299921 0.000737131 -0.000150588 2.97403
0.32 0.015 -0.0306954 0.000740635 -0.000154284 3.03697
0.325 0.015 -0.0314001 0.000742732 -0.000157994 3.09973
0.33 0.015 -0.0321047 0.000743402 -0.000161712 3.1622
0.335 0.015 -0.0328078 0.000742623 -0.000165429 3.22424
0.34 0.015 -0.0335081 0.000740378 -0.000169138 3.28572
0.345 0.015 -0.034204 0.000736649 -0.000172833 3.3465
0.35 0.015 -0.0348943 0.000731421 -0.000176505 3.40647
0.355 0.015 -0.0355774 0.00072468 -0.000180147 3.46549
0.36 0.015 -0.0362519 0.000716418 -0.000183752 3.52343
0.365 0.015 -0.0369163 0.000706627 -0.000187312 3.58017
0.37 0.015 -0.0375693 0.000695302 -0.000190819 3.63557
0.375 0.015 -0.0382094 0.000682443 -0.000194266 3.68952
0.38 0.015 -0.0388351 0.000668053 -0.000197644 3.74189
0.385 0.015 -0.039445 0.000652137 -0.000200947 3.79257
0.39 0.015 -0.0400377 0.000634706 -0.000204166 3.84143
0.395 0.015 -0.0406119 0.000615773 -0.000207295 3.88836
0.4 0.015 -0.0411661 0.000595357 -0.000210325 3.93324
0.405 0.015 -0.041699 0.00057348 -0.000213249 3.97598
0.41 0.015 -0.0422093 0.000550168 -0.00021606 4.01646
0.415 0.015 -0.0426957 0.00052545 -0.000218752 4.05459
0.42 0.015 -0.0431569 0.000499362 -0.000221316 4.09026
0.425 0.015 -0.0435918 0.000471942 -0.000223746 4.12339
0.43 0.015 -0.0439992 0.000443234 -0.000226036 4.15388
0.435 0.015 -0.0443779 0.000413284 -0.00022818 4.18167
0.44 0.015 -0.0447269 0.000382144 -0.00023017 4.20666
0.445 0.015 -0.0450452 0.000349869 -0.000232002 4.22878
0.45 0.015 -0.0453318 0.000316519 -0.00023367 4.24798
0.455 0.015 -0.0455858 0.000282156 -0.000235168 4.26418
0.46 0.015 -0.0458063 0.000246849 -0.000236493 4.27734
0.465 0.015 -0.0459927 0.000210667 -0.000237638 4.28741
0.47 0.015 -0.0461442 0.000173685 -0.0002386 4.29434
0.475 0.015 -0.0462601 0.00013598 -0.000239376 4.29811
0.48 0.015 -0.04634 9.76334e-05 -0.000239962 4.29867
0.485 0.015 -0.0463834 5.87289e-05 -0.000240354 4.29601
0.49 0.015 -0.0463898 1.93526e-05 -0.00024055 4.29012
0.495 0.015 -0.0463589 -2.04065e-05 -0.000240549 4.28098
0.5 0.015 -0.0462906 -6.04571e-05 -0.000240347 4.2686
0.505 0.015 -0.0461846 -0.000100706 -0.000239945 4.25297
0.51 0.015 -0.046041 -0.000141059 -0.000239342 4.23412
0.515 0.015 -0.0458597 -0.000181419 -0.000238536 4.21206
0.52 0.015 -0.0456408 -0.00022169 -0.000237529 4.18682
0.525 0.015 -0.0453846 -0.000261772 -0.000236321 4.15843
0.53 0.015 -0.0450914 -0.000301568 -0.000234913 4.12692
0.535 0.015 -0.0447615 -0.000340979 -0.000233307 4.09236
0.54 0.015 -0.0443954 -0.000379906 -0.000231504 4.05479
0.545 0.015 -0.0439937 -0.000418253 -0.000229509 4.01426
0.55 0.015 -0.043557 -0.000455922 -0.000227323 3.97086
0.555 0.015 -0.043086 -0.000492818 -0.000224951 3.92464
0.56 0.015 -0.0425816 -0.000528847 -0.000222397 3.87569
0.565 0.015 -0.0420446 -0.000563919 -0.000219664 3.82409
0.57 0.015 -0.0414759 -0.000597944 -0.000216759 3.76993
0.575 0.015 -0.0408768 -0.000630837 -0.000213686 3.71331
0.58 0.015 -0.0402482 -0.000662515 -0.000210452 3.65433
0.585 0.015 -0.0395913 -0.0006929 -0.000207063 3.59308
0.59 0.015 -0.0389075 -0.000721915 -0.000203525 3.52969
0.595 0.015 -0.038198 -0.000749491 -0.000199845 3.46426
0.6 0.015 -0.0374642 -0.000775562 -0.000196031 3.39691
0.605 0.015 -0.0367075 -0.000800067 -0.000192091 3.32777
0.61 0.015 -0.0359294 -0.000822949 -0.000188032 3.25695
0.615 0.015 -0.0351315 -0.00084416 -0.000183863 3.18459
0.62 0.015 -0.0343153 -0.000863653 -0.000179592 3.11081
0.625 0.015 -0.0334824 -0.000881392 -0.000175227 3.03574
0.63 0.015 -0.0326344 -0.000897343 -0.000170779 2.95952
0.635 0.015 -0.031773 -0.00091148 -0.000166255 2.88229
0.64 0.015 -0.0308998 -0.000923783 -0.000161665 2.80418
0.645 0.015 -0.0300166 -0.00093424 -0.000157019 2.72532
0.65 0.015 -0.0291251 -0.000942844 -0.000152324 2.64585
0.655 0.015 -0.0282268 -0.000949594 -0.000147591 2.56591
0.66 0.015 -0.0273236 -0.000954497 -0.000142829 2.48564
0.665 0.015 -0.0264171 -0.000957565 -0.000138047 2.40516
0.67 0.015 -0.0255089 -0.000958817 -0.000133255 2.32462
0.675 0.015 -0.0246007 -0.00095828 -0.00012846 2.24414
0.68 0.015 -0.0236942 -0.000955983 -0.000123673 2.16386
0.685 0.015 -0.0227908 -0.000951965 -0.000118901 2.08389
0.69 0.015 -0.0218922 -0.000946267 -0.000114154 2.00437
0.695 0.015 -0.0209999 -0.000938938 -0.00010944 1.92541
0.7 0.015 -0.0201153 -0.000930031 -0.000104766 1.84714
0.705 0.015 -0.0192398 -0.000919603 -0.00010014 1.76966
0.71 0.015 -0.0183748 -0.000907717 -9.55703e-05 1.69309
0.715 0.015 -0.0175217 -0.000894438 -9.10635e-05 1.61753
0.72 0.015 -0.0166815 -0.000879836 -8.66265e-05 1.54308
0.725 0.015 -0.0158556 -0.000863983 -8.22658e-05 1.46985
0.73 0.015 -0.0150451 -0.000846956 -7.79873e-05 1.39791
0.735 0.015 -0.0142509 -0.000828831 -7.37967e-05 1.32736
0.74 0.015 -0.0134741 -0.000809688 -6.96994e-05 1.25827
0.745 0.015 -0.0127155 -0.000789609 -6.57003e-05 1.19073
0.75 0.015 -0.011976 -0.000768676 -6.18038e-05 1.12479
0.755 0.015 -0.0112564 -0.000746971 -5.80139e-05 1.06054
0.76 0.015 -0.0105573 -0.000724577 -5.43344e-05 0.998013
0.765 0.015 -0.00987933 -0.000701577 -5.07685e-05 0.937276
0.77 0.015 -0.00922301 -0.000678052 -4.73189e-05 0.878373
0.775 0.015 -0.00858882 -0.000654085 -4.39882e-05 0.821345
0.78 0.015 -0.00797714 -0.000629753 -4.07783e-05 0.766228
0.785 0.015 -0.00738828 -0.000605137 -3.76908e-05 0.713051
0.79 0.015 -0.0068225 -0.00058031 -3.47271e-05 0.66184
0.795 0.015 -0.00627996 -0.000555347 -3.18879e-05 0.612613
0.8 0.015 -0.00576078 -0.000530318 -2.91737e-05 0.565384
0.805 0.015 -0.00526501 -0.000505292 -2.65848e-05 0.520163
0.81 0.015 -0.00479263 -0.000480334 -2.41208e-05 0.476952
0.815 0.015 -0.00434358 -0.000455506 -2.17814e-05 0.43575
0.82 0.015 -0.00391772 -0.000430865 -1.95658e-05 0.396553
0.825 0.015 -0.00351488 -0.000406467 -1.74728e-05 0.359349
0.83 0.015 -0.00313483 -0.000382363 -1.55011e-05 0.324125