Title=" Lid Driven Flow"
VARIABLES="X","Y","U","V","psi","xi"
ZONE T= "BOX", I= 201, J=201, F=POINT
0 0 0 0 0.00124047 0
0.005 0 0 0 0 0
0.01 0 0 0 0 0
0.015 0 0 0 0 161.89
0.02 0 0 0 0 176.13
0.025 0 0 0 0 155.632
0.03 0 0 0 0 133.271
0.035 0 0 0 0 115.783
0.04 0 0 0 0 102.958
0.045 0 0 0 0 93.4465
0.05 0 0 0 0 86.1363
0.055 0 0 0 0 80.293
0.06 0 0 0 0 75.4577
0.065 0 0 0 0 71.3421
0.07 0 0 0 0 67.7591
0.075 0 0 0 0 64.5836
0.08 0 0 0 0 61.7283
0.085 0 0 0 0 59.1313
0.09 0 0 0 0 56.7471
0.095 0 0 0 0 54.5418
0.1 0 0 0 0 52.4895
0.105 0 0 0 0 50.5704
0.11 0 0 0 0 48.7686
0.115 0 0 0 0 47.0717
0.12 0 0 0 0 45.4694
0.125 0 0 0 0 43.9532
0.13 0 0 0 0 42.5159
0.135 0 0 0 0 41.1514
0.14 0 0 0 0 39.8544
0.145 0 0 0 0 38.6201
0.15 0 0 0 0 37.4443
0.155 0 0 0 0 36.3232
0.16 0 0 0 0 35.2533
0.165 0 0 0 0 34.2314
0.17 0 0 0 0 33.2544
0.175 0 0 0 0 32.3196
0.18 0 0 0 0 31.4242
0.185 0 0 0 0 30.5659
0.19 0 0 0 0 29.7423
0.195 0 0 0 0 28.9512
0.2 0 0 0 0 28.1904
0.205 0 0 0 0 27.4579
0.21 0 0 0 0 26.752
0.215 0 0 0 0 26.0708
0.22 0 0 0 0 25.4125
0.225 0 0 0 0 24.7757
0.23 0 0 0 0 24.1588
0.235 0 0 0 0 23.5603
0.24 0 0 0 0 22.979
0.245 0 0 0 0 22.4135
0.25 0 0 0 0 21.8627
0.255 0 0 0 0 21.3254
0.26 0 0 0 0 20.8006
0.265 0 0 0 0 20.2873
0.27 0 0 0 0 19.7846
0.275 0 0 0 0 19.2917
0.28 0 0 0 0 18.8077
0.285 0 0 0 0 18.3321
0.29 0 0 0 0 17.864
0.295 0 0 0 0 17.403
0.3 0 0 0 0 16.9484
0.305 0 0 0 0 16.4998
0.31 0 0 0 0 16.0568
0.315 0 0 0 0 15.619
0.32 0 0 0 0 15.186
0.325 0 0 0 0 14.7575
0.33 0 0 0 0 14.3334
0.335 0 0 0 0 13.9135
0.34 0 0 0 0 13.4975
0.345 0 0 0 0 13.0854
0.35 0 0 0 0 12.6771
0.355 0 0 0 0 12.2725
0.36 0 0 0 0 11.8718
0.365 0 0 0 0 11.4749
0.37 0 0 0 0 11.0818
0.375 0 0 0 0 10.6927
0.38 0 0 0 0 10.3078
0.385 0 0 0 0 9.92709
0.39 0 0 0 0 9.5508
0.395 0 0 0 0 9.17913
0.4 0 0 0 0 8.81227
0.405 0 0 0 0 8.45043
0.41 0 0 0 0 8.09387
0.415 0 0 0 0 7.7428
0.42 0 0 0 0 7.39748
0.425 0 0 0 0 7.05815
0.43 0 0 0 0 6.72507
0.435 0 0 0 0 6.39849
0.44 0 0 0 0 6.07865
0.445 0 0 0 0 5.76578
0.45 0 0 0 0 5.46012
0.455 0 0 0 0 5.16189
0.46 0 0 0 0 4.8713
0.465 0 0 0 0 4.58853
0.47 0 0 0 0 4.31375
0.475 0 0 0 0 4.04714
0.48 0 0 0 0 3.78882
0.485 0 0 0 0 3.5389
0.49 0 0 0 0 3.2975
0.495 0 0 0 0 3.06467
0.5 0 0 0 0 2.84047
0.505 0 0 0 0 2.62492
0.51 0 0 0 0 2.41803
0.515 0 0 0 0 2.21979
0.52 0 0 0 0 2.03014
0.525 0 0 0 0 1.84902
0.53 0 0 0 0 1.67636
0.535 0 0 0 0 1.51205
0.54 0 0 0 0 1.35595
0.545 0 0 0 0 1.20793
0.55 0 0 0 0 1.06783
0.555 0 0 0 0 0.935478
0.56 0 0 0 0 0.810677
0.565 0 0 0 0 0.693229
0.57 0 0 0 0 0.58292
0.575 0 0 0 0 0.479528
0.58 0 0 0 0 0.382822
0.585 0 0 0 0 0.292566
0.59 0 0 0 0 0.208515
0.595 0 0 0 0 0.130424
0.6 0 0 0 0 0.0580439
0.605 0 0 0 0 -0.00887573
0.61 0 0 0 0 -0.0705853
0.615 0 0 0 0 -0.127334
0.62 0 0 0 0 -0.179371
0.625 0 0 0 0 -0.22694
0.63 0 0 0 0 -0.270282
0.635 0 0 0 0 -0.309635
0.64 0 0 0 0 -0.345232
0.645 0 0 0 0 -0.377298
0.65 0 0 0 0 -0.406055
0.655 0 0 0 0 -0.431717
0.66 0 0 0 0 -0.45449
0.665 0 0 0 0 -0.474575
0.67 0 0 0 0 -0.492162
0.675 0 0 0 0 -0.507436
0.68 0 0 0 0 -0.520571
0.685 0 0 0 0 -0.531733
0.69 0 0 0 0 -0.54108
0.695 0 0 0 0 -0.548759
0.7 0 0 0 0 -0.554908
0.705 0 0 0 0 -0.559656
0.71 0 0 0 0 -0.563122
0.715 0 0 0 0 -0.565415
0.72 0 0 0 0 -0.566636
0.725 0 0 0 0 -0.566875
0.73 0 0 0 0 -0.566214
0.735 0 0 0 0 -0.564725
0.74 0 0 0 0 -0.562474
0.745 0 0 0 0 -0.559517
0.75 0 0 0 0 -0.555903
0.755 0 0 0 0 -0.551674
0.76 0 0 0 0 -0.546867
0.765 0 0 0 0 -0.54151
0.77 0 0 0 0 -0.535629
0.775 0 0 0 0 -0.529244
0.78 0 0 0 0 -0.522371
0.785 0 0 0 0 -0.515022
0.79 0 0 0 0 -0.507207
0.795 0 0 0 0 -0.498934
0.8 0 0 0 0 -0.490208
0.805 0 0 0 0 -0.481033
0.81 0 0 0 0 -0.471414
0.815 0 0 0 0 -0.461354
0.82 0 0 0 0 -0.450855
0.825 0 0 0 0 -0.439921
0.83 0 0 0 0 -0.428557
0.835 0 0 0 0 -0.416769
0.84 0 0 0 0 -0.404562
0.845 0 0 0 0 -0.391946
0.85 0 0 0 0 -0.37893
0.855 0 0 0 0 -0.365526
0.86 0 0 0 0 -0.35175
0.865 0 0 0 0 -0.337618
0.87 0 0 0 0 -0.32315
0.875 0 0 0 0 -0.308367
0.88 0 0 0 0 -0.293296
0.885 0 0 0 0 -0.277965
0.89 0 0 0 0 -0.262406
0.895 0 0 0 0 -0.246655
0.9 0 0 0 0 -0.230753
0.905 0 0 0 0 -0.214742
0.91 0 0 0 0 -0.198673
0.915 0 0 0 0 -0.182599
0.92 0 0 0 0 -0.16658
0.925 0 0 0 0 -0.150682
0.93 0 0 0 0 -0.134977
0.935 0 0 0 0 -0.119545
0.94 0 0 0 0 -0.104473
0.945 0 0 0 0 -0.0898595
0.95 0 0 0 0 -0.0758104
0.955 0 0 0 0 -0.0624441
0.96 0 0 0 0 -0.0498907
0.965 0 0 0 0 -0.0382936
0.97 0 0 0 0 -0.0278098
0.975 0 0 0 0 -0.0186097
0.98 0 0 0 0 -0.0108746
0.985 0 0 0 0 -0.00478938
0.99 0 0 0 0 -0.000523884
0.995 0 0 0 0 0.00181
1 0 0 0 0 0.00225752
0 0.005 0 0 0 0
0.005 0.005 0 0 0 0
0.01 0.005 0 0 0 73.7257
0.015 0.005 0 0 0 62.0042
0.02 0.005 0 0 0 45.5719
0.025 0.005 0 0 0 33.756
0.03 0.005 0 0 0 25.8696
0.035 0.005 0 0 0 20.5092
0.04 0.005 0 0 0 16.7181
0.045 0.005 0 0 0 13.9278
0.05 0.005 0 0 0 11.8036
0.055 0.005 0 0 0 10.1426
0.06 0.005 0 0 0 8.81644
0.065 0.005 0 0 0 7.74028
0.07 0.005 0 0 0 6.85568
0.075 0.005 0 0 0 6.12101
0.08 0.005 0 0 0 5.50572
0.085 0.005 0 0 0 4.98687
0.09 0.005 0 0 0 4.54685
0.095 0.005 0 0 0 4.17193
0.1 0.005 0 0 0 3.85125
0.105 0.005 0 0 0 3.57614
0.11 0.005 0 0 0 3.33955
0.115 0.005 0 0 0 3.13576
0.12 0.005 0 0 0 2.96005
0.125 0.005 0 0 0 2.80851
0.13 0.005 0 0 0 2.67788
0.135 0.005 0 0 0 2.56544
0.14 0.005 0 0 0 2.46888
0.145 0.005 0 0 0 2.38624
0.15 0.005 0 0 0 2.31587
0.155 0.005 0 0 0 2.25634
0.16 0.005 0 0 0 2.20643
0.165 0.005 0 0 0 2.16508
0.17 0.005 0 0 0 2.13138
0.175 0.005 0 0 0 2.10454
0.18 0.005 0 0 0 2.08386
0.185 0.005 0 0 0 2.06872
0.19 0.005 0 0 0 2.0586
0.195 0.005 0 0 0 2.05302
0.2 0.005 0 0 0 2.05154
0.205 0.005 0 0 0 2.05381
0.21 0.005 0 0 0 2.05947
0.215 0.005 0 0 0 2.06822
0.22 0.005 0 0 0 2.07979
0.225 0.005 0 0 0 2.09393
0.23 0.005 0 0 0 2.1104
0.235 0.005 0 0 0 2.129
0.24 0.005 0 0 0 2.14953
0.245 0.005 0 0 0 2.17181
0.25 0.005 0 0 0 2.19566
0.255 0.005 0 0 0 2.22093
0.26 0.005 0 0 0 2.24747
0.265 0.005 0 0 0 2.27513
0.27 0.005 0 0 0 2.30377
0.275 0.005 0 0 0 2.33327
0.28 0.005 0 0 0 2.3635
0.285 0.005 0 0 0 2.39433
0.29 0.005 0 0 0 2.42565
0.295 0.005 0 0 0 2.45734
0.3 0.005 0 0 0 2.48929
0.305 0.005 0 0 0 2.52138
0.31 0.005 0 0 0 2.55352
0.315 0.005 0 0 0 2.58559
0.32 0.005 0 0 0 2.6175
0.325 0.005 0 0 0 2.64914
0.33 0.005 0 0 0 2.6804
0.335 0.005 0 0 0 2.7112
0.34 0.005 0 0 0 2.74144
0.345 0.005 0 0 0 2.77103
0.35 0.005 0 0 0 2.79986
0.355 0.005 0 0 0 2.82786
0.36 0.005 0 0 0 2.85494
0.365 0.005 0 0 0 2.881
0.37 0.005 0 0 0 2.90598
0.375 0.005 0 0 0 2.92978
0.38 0.005 0 0 0 2.95233
0.385 0.005 0 0 0 2.97356
0.39 0.005 0 0 0 2.9934
0.395 0.005 0 0 0 3.01177
0.4 0.005 0 0 0 3.02862
0.405 0.005 0 0 0 3.04388
0.41 0.005 0 0 0 3.0575
0.415 0.005 0 0 0 3.06942
0.42 0.005 0 0 0 3.07959
0.425 0.005 0 0 0 3.08797
0.43 0.005 0 0 0 3.09453
0.435 0.005 0 0 0 3.09921
0.44 0.005 0 0 0 3.102
0.445 0.005 0 0 0 3.10286
0.45 0.005 0 0 0 3.10178
0.455 0.005 0 0 0 3.09873
0.46 0.005 0 0 0 3.0937
0.465 0.005 0 0 0 3.08669
0.47 0.005 0 0 0 3.0777
0.475 0.005 0 0 0 3.06672
0.48 0.005 0 0 0 3.05376
0.485 0.005 0 0 0 3.03883
0.49 0.005 0 0 0 3.02196
0.495 0.005 0 0 0 3.00316
0.5 0.005 0 0 0 2.98245
0.505 0.005 0 0 0 2.95988
0.51 0.005 0 0 0 2.93547
0.515 0.005 0 0 0 2.90926
0.52 0.005 0 0 0 2.8813
0.525 0.005 0 0 0 2.85163
0.53 0.005 0 0 0 2.8203
0.535 0.005 0 0 0 2.78737
0.54 0.005 0 0 0 2.75289
0.545 0.005 0 0 0 2.71692
0.55 0.005 0 0 0 2.67954
0.555 0.005 0 0 0 2.64079
0.56 0.005 0 0 0 2.60076
0.565 0.005 0 0 0 2.55951
0.57 0.005 0 0 0 2.5171
0.575 0.005 0 0 0 2.47363
0.58 0.005 0 0 0 2.42915
0.585 0.005 0 0 0 2.38375
0.59 0.005 0 0 0 2.33749
0.595 0.005 0 0 0 2.29047
0.6 0.005 0 0 0 2.24275
0.605 0.005 0 0 0 2.19441
0.61 0.005 0 0 0 2.14553
0.615 0.005 0 0 0 2.09618
0.62 0.005 0 0 0 2.04643
0.625 0.005 0 0 0 1.99638
0.63 0.005 0 0 0 1.94607
0.635 0.005 0 0 0 1.8956
0.64 0.005 0 0 0 1.84502
0.645 0.005 0 0 0 1.7944
0.65 0.005 0 0 0 1.74382
0.655 0.005 0 0 0 1.69333
0.66 0.005 0 0 0 1.64301
0.665 0.005 0 0 0 1.5929
0.67 0.005 0 0 0 1.54307
0.675 0.005 0 0 0 1.49357
0.68 0.005 0 0 0 1.44446
0.685 0.005 0 0 0 1.39578
0.69 0.005 0 0 0 1.34759
0.695 0.005 0 0 0 1.29992
0.7 0.005 0 0 0 1.25283
0.705 0.005 0 0 0 1.20635
0.71 0.005 0 0 0 1.16052
0.715 0.005 0 0 0 1.11537
0.72 0.005 0 0 0 1.07094
0.725 0.005 0 0 0 1.02726
0.73 0.005 0 0 0 0.984356
0.735 0.005 0 0 0 0.94225
0.74 0.005 0 0 0 0.900968
0.745 0.005 0 0 0 0.86053
0.75 0.005 0 0 0 0.820956
0.755 0.005 0 0 0 0.782261
0.76 0.005 0 0 0 0.744461
0.765 0.005 0 0 0 0.707568
0.77 0.005 0 0 0 0.671594
0.775 0.005 0 0 0 0.636548
0.78 0.005 0 0 0 0.602438
0.785 0.005 0 0 0 0.56927
0.79 0.005 0 0 0 0.53705
0.795 0.005 0 0 0 0.505781
0.8 0.005 0 0 0 0.475466
0.805 0.005 0 0 0 0.446106
0.81 0.005 0 0 0 0.417703
0.815 0.005 0 0 0 0.390255
0.82 0.005 0 0 0 0.363761
0.825 0.005 0 0 0 0.33822
0.83 0.005 0 0 0 0.313629
0.835 0.005 0 0 0 0.289984
0.84 0.005 0 0 0 0.267283
0.845 0.005 0 0 0 0.245521
0.85 0.005 0 0 0 0.224693
0.855 0.005 0 0 0 0.204795
0.86 0.005 0 0 0 0.185821
0.865 0.005 0 0 0 0.167768
0.87 0.005 0 0 0 0.150629
0.875 0.005 0 0 0 0.134399
0.88 0.005 0 0 0 0.119073
0.885 0.005 0 0 0 0.104645
0.89 0.005 0 0 0 0.0911106
0.895 0.005 0 0 0 0.0784643
0.9 0.005 0 0 0 0.066701
0.905 0.005 0 0 0 0.0558157
0.91 0.005 0 0 0 0.0458038
0.915 0.005 0 0 0 0.0366605
0.92 0.005 0 0 0 0.028381
0.925 0.005 0 0 0 0.0209606
0.93 0.005 0 0 0 0.0143942
0.935 0.005 0 0 0 0.00867613
0.94 0.005 0 0 0 0.00379986
0.945 0.005 0 0 0 -0.000242665
0.95 0.005 0 0 0 -0.00346184
0.955 0.005 0 0 0 -0.00587165
0.96 0.005 0 0 0 -0.00749145
0.965 0.005 0 0 0 -0.0083487
0.97 0.005 0 0 0 -0.00848298
0.975 0.005 0 0 0 -0.00795227
0.98 0.005 0 0 0 -0.00684263
0.985 0.005 0 0 0 -0.0052835
0.99 0.005 0 0 0 -0.0034711
0.995 0.005 0 0 0 -0.00170058
1 0.005 0 0 0 -0.000390364
0 0.01 0 0 -0.000390364 0
0.005 0.01 0 0 0 -326.274
0.01 0.01 -0.179975 0.0775052 -0.000921571 -44.4594
0.015 0.01 -0.184568 -0.0351923 -0.000775052 9.46774
0.02 0.01 -0.155844 -0.0353102 -0.000569648 19.0741
0.025 0.01 -0.126906 -0.0246278 -0.00042195 18.9711
0.03 0.01 -0.103612 -0.0165586 -0.00032337 16.8382
0.035 0.01 -0.0857045 -0.0114394 -0.000256365 14.5573
0.04 0.01 -0.0719398 -0.00822675 -0.000208977 12.5582
0.045 0.01 -0.061214 -0.0061432 -0.000174097 10.8909
0.05 0.01 -0.0527163 -0.00473152 -0.000147544 9.51459
0.055 0.01 -0.0458774 -0.0037339 -0.000126782 8.37583
0.06 0.01 -0.0402979 -0.00300285 -0.000110205 7.42772
0.065 0.01 -0.0356934 -0.00245093 -9.67534e-05 6.63286
0.07 0.01 -0.0318571 -0.00202408 -8.56959e-05 5.96211
0.075 0.01 -0.0286353 -0.00168744 -7.65125e-05 5.3928
0.08 0.01 -0.0259117 -0.00141766 -6.88214e-05 4.90717
0.085 0.01 -0.0235964 -0.00119858 -6.23357e-05 4.49113
0.09 0.01 -0.0216193 -0.00101866 -5.68354e-05 4.13345
0.095 0.01 -0.0199246 -0.000869472 -5.21489e-05 3.82503
0.1 0.01 -0.0184673 -0.000744716 -4.81405e-05 3.55844
0.105 0.01 -0.0172112 -0.000639607 -4.47016e-05 3.3276
0.11 0.01 -0.0161265 -0.000550451 -4.17442e-05 3.12745
0.115 0.01 -0.0151888 -0.000474359 -3.91969e-05 2.95379
0.12 0.01 -0.0143776 -0.000409047 -3.70005e-05 2.8031
0.125 0.01 -0.0136761 -0.000352689 -3.51062e-05 2.6724
0.13 0.01 -0.0130699 -0.000303819 -3.34734e-05 2.55917
0.135 0.01 -0.012547 -0.000261241 -3.20678e-05 2.46129
0.14 0.01 -0.012097 -0.000223983 -3.08608e-05 2.37692
0.145 0.01 -0.0117114 -0.000191244 -2.98278e-05 2.30448
0.15 0.01 -0.0113827 -0.000162361 -2.89482e-05 2.24264
0.155 0.01 -0.0111043 -0.000136785 -2.82041e-05 2.19021
0.16 0.01 -0.0108708 -0.000114055 -2.75802e-05 2.14619
0.165 0.01 -0.0106773 -9.37878e-05 -2.70633e-05 2.10968
0.17 0.01 -0.0105197 -7.56579e-05 -2.66422e-05 2.07993
0.175 0.01 -0.0103942 -5.93918e-05 -2.63066e-05 2.05624
0.18 0.01 -0.0102978 -4.47576e-05 -2.60481e-05 2.03802
0.185 0.01 -0.0102274 -3.15578e-05 -2.58589e-05 2.02475
0.19 0.01 -0.0101807 -1.96243e-05 -2.57324e-05 2.01594
0.195 0.01 -0.0101554 -8.81349e-06 -2.56626e-05 2.01119
0.2 0.01 -0.0101495 9.97615e-07 -2.56442e-05 2.01011
0.205 0.01 -0.0101612 9.91447e-06 -2.56725e-05 2.01238
0.21 0.01 -0.010189 1.80276e-05 -2.57432e-05 2.01769
0.215 0.01 -0.0102314 2.54149e-05 -2.58527e-05 2.02576
0.22 0.01 -0.0102871 3.21433e-05 -2.59973e-05 2.03634
0.225 0.01 -0.0103549 3.82705e-05 -2.61741e-05 2.0492
0.23 0.01 -0.0104337 4.38463e-05 -2.638e-05 2.06413
0.235 0.01 -0.0105224 4.89133e-05 -2.66125e-05 2.08094
0.24 0.01 -0.0106203 5.35086e-05 -2.68691e-05 2.09945
0.245 0.01 -0.0107262 5.76639e-05 -2.71476e-05 2.11948
0.25 0.01 -0.0108396 6.14066e-05 -2.74457e-05 2.14089
0.255 0.01 -0.0109595 6.47605e-05 -2.77616e-05 2.16351
0.26 0.01 -0.0110853 6.77458e-05 -2.80933e-05 2.18721
0.265 0.01 -0.0112162 7.03802e-05 -2.84391e-05 2.21185
0.27 0.01 -0.0113516 7.26789e-05 -2.87972e-05 2.23731
0.275 0.01 -0.0114909 7.46549e-05 -2.91659e-05 2.26346
0.28 0.01 -0.0116335 7.63197e-05 -2.95438e-05 2.29019
0.285 0.01 -0.0117787 7.76832e-05 -2.99292e-05 2.31738
0.29 0.01 -0.011926 7.87541e-05 -3.03207e-05 2.34492
0.295 0.01 -0.0120748 7.95401e-05 -3.07168e-05 2.3727
0.3 0.01 -0.0122246 8.0048e-05 -3.11162e-05 2.40063
0.305 0.01 -0.0123749 8.02839e-05 -3.15174e-05 2.42859
0.31 0.01 -0.0125251 8.02537e-05 -3.19191e-05 2.4565
0.315 0.01 -0.0126748 7.99624e-05 -3.232e-05 2.48425
0.32 0.01 -0.0128235 7.94151e-05 -3.27189e-05 2.51175
0.325 0.01 -0.0129706 7.86167e-05 -3.31143e-05 2.53891
0.33 0.01 -0.0131157 7.75719e-05 -3.35052e-05 2.56564
0.335 0.01 -0.0132584 7.62854e-05 -3.38902e-05 2.59186
0.34 0.01 -0.0133981 7.47622e-05 -3.42682e-05 2.61748
0.345 0.01 -0.0135345 7.30071e-05 -3.4638e-05 2.64241
0.35 0.01 -0.0136672 7.10254e-05 -3.49985e-05 2.66658
0.355 0.01 -0.0137956 6.88225e-05 -3.53485e-05 2.68991
0.36 0.01 -0.0139194 6.64042e-05 -3.56869e-05 2.71232
0.365 0.01 -0.0140382 6.37765e-05 -3.60128e-05 2.73374
0.37 0.01 -0.0141517 6.09457e-05 -3.6325e-05 2.75409
0.375 0.01 -0.0142593 5.79188e-05 -3.66225e-05 2.77332
0.38 0.01 -0.0143609 5.47028e-05 -3.69044e-05 2.79136
0.385 0.01 -0.014456 5.13054e-05 -3.71698e-05 2.80814
0.39 0.01 -0.0145444 4.77345e-05 -3.74177e-05 2.82361
0.395 0.01 -0.0146257 4.39985e-05 -3.76474e-05 2.83771
0.4 0.01 -0.0146995 4.01063e-05 -3.7858e-05 2.85039
0.405 0.01 -0.0147658 3.6067e-05 -3.80488e-05 2.8616
0.41 0.01 -0.0148241 3.18903e-05 -3.8219e-05 2.8713
0.415 0.01 -0.0148743 2.75861e-05 -3.8368e-05 2.87943
0.42 0.01 -0.0149162 2.31649e-05 -3.84952e-05 2.88598
0.425 0.01 -0.0149495 1.86373e-05 -3.86e-05 2.8909
0.43 0.01 -0.0149741 1.40142e-05 -3.86819e-05 2.89415
0.435 0.01 -0.0149898 9.3069e-06 -3.87405e-05 2.89573
0.44 0.01 -0.0149964 4.527e-06 -3.87754e-05 2.8956
0.445 0.01 -0.014994 -3.13837e-07 -3.87862e-05 2.89374
0.45 0.01 -0.0149823 -5.20369e-06 -3.87726e-05 2.89015
0.455 0.01 -0.0149614 -1.01305e-05 -3.87345e-05 2.88482
0.46 0.01 -0.0149311 -1.50822e-05 -3.86717e-05 2.87773
0.465 0.01 -0.0148915 -2.00465e-05 -3.85841e-05 2.86888
0.47 0.01 -0.0148425 -2.50113e-05 -3.84716e-05 2.85829
0.475 0.01 -0.0147842 -2.99644e-05 -3.83343e-05 2.84596
0.48 0.01 -0.0147166 -3.48937e-05 -3.81724e-05 2.83189
0.485 0.01 -0.0146398 -3.97872e-05 -3.79858e-05 2.81611
0.49 0.01 -0.0145539 -4.46332e-05 -3.77749e-05 2.79863
0.495 0.01 -0.014459 -4.94201e-05 -3.75399e-05 2.77947
0.5 0.01 -0.0143552 -5.41365e-05 -3.72811e-05 2.75867
0.505 0.01 -0.0142427 -5.87714e-05 -3.69989e-05 2.73625
0.51 0.01 -0.0141216 -6.33142e-05 -3.66938e-05 2.71225
0.515 0.01 -0.0139922 -6.77546e-05 -3.63662e-05 2.6867
0.52 0.01 -0.0138545 -7.20828e-05 -3.60166e-05 2.65965
0.525 0.01 -0.013709 -7.62892e-05 -3.56457e-05 2.63113
0.53 0.01 -0.0135558 -8.0365e-05 -3.52541e-05 2.6012
0.535 0.01 -0.0133952 -8.43018e-05 -3.48425e-05 2.5699
0.54 0.01 -0.0132273 -8.80918e-05 -3.44115e-05 2.53729
0.545 0.01 -0.0130527 -9.17278e-05 -3.39619e-05 2.50341
0.55 0.01 -0.0128714 -9.5203e-05 -3.34946e-05 2.46833
0.555 0.01 -0.0126839 -9.85114e-05 -3.30103e-05 2.43211
0.56 0.01 -0.0124905 -0.000101648 -3.25099e-05 2.3948
0.565 0.01 -0.0122914 -0.000104607 -3.19942e-05 2.35646
0.57 0.01 -0.012087 -0.000107385 -3.14641e-05 2.31715
0.575 0.01 -0.0118777 -0.000109979 -3.09207e-05 2.27695
0.58 0.01 -0.0116639 -0.000112386 -3.03647e-05 2.23591
0.585 0.01 -0.0114457 -0.000114603 -2.97972e-05 2.19411
0.59 0.01 -0.0112237 -0.00011663 -2.9219e-05 2.1516
0.595 0.01 -0.0109982 -0.000118464 -2.86312e-05 2.10845
0.6 0.01 -0.0107695 -0.000120107 -2.80347e-05 2.06472
0.605 0.01 -0.010538 -0.000121559 -2.74304e-05 2.02049
0.61 0.01 -0.010304 -0.00012282 -2.68194e-05 1.97582
0.615 0.01 -0.0100679 -0.000123893 -2.62025e-05 1.93077
0.62 0.01 -0.00983005 -0.000124779 -2.55807e-05 1.88541
0.625 0.01 -0.00959079 -0.000125481 -2.4955e-05 1.8398
0.63 0.01 -0.00935044 -0.000126002 -2.43262e-05 1.79401
0.635 0.01 -0.00910935 -0.000126346 -2.36952e-05 1.74808
0.64 0.01 -0.00886784 -0.000126517 -2.30629e-05 1.70209
0.645 0.01 -0.00862622 -0.000126519 -2.24303e-05 1.65609
0.65 0.01 -0.0083848 -0.000126358 -2.1798e-05 1.61014
0.655 0.01 -0.00814389 -0.000126038 -2.11669e-05 1.56429
0.66 0.01 -0.00790376 -0.000125565 -2.05378e-05 1.5186
0.665 0.01 -0.0076647 -0.000124944 -1.99114e-05 1.47311
0.67 0.01 -0.00742697 -0.000124181 -1.92885e-05 1.42788
0.675 0.01 -0.00719084 -0.000123283 -1.86698e-05 1.38295
0.68 0.01 -0.00695655 -0.000122256 -1.80559e-05 1.33837
0.685 0.01 -0.00672433 -0.000121105 -1.74474e-05 1.29419
0.69 0.01 -0.0064944 -0.000119838 -1.6845e-05 1.25043
0.695 0.01 -0.00626698 -0.000118461 -1.62492e-05 1.20715
0.7 0.01 -0.00604226 -0.00011698 -1.56605e-05 1.16437
0.705 0.01 -0.00582043 -0.000115402 -1.50795e-05 1.12214
0.71 0.01 -0.00560167 -0.000113733 -1.45066e-05 1.08049
0.715 0.01 -0.00538613 -0.00011198 -1.39423e-05 1.03944
0.72 0.01 -0.00517398 -0.000110148 -1.33869e-05 0.999019
0.725 0.01 -0.00496535 -0.000108244 -1.28409e-05 0.959262
0.73 0.01 -0.00476037 -0.000106274 -1.23045e-05 0.920189
0.735 0.01 -0.00455916 -0.000104243 -1.17782e-05 0.881823
0.74 0.01 -0.00436183 -0.000102158 -1.12622e-05 0.844183
0.745 0.01 -0.00416848 -0.000100023 -1.07567e-05 0.80729
0.75 0.01 -0.00397919 -9.78435e-05 -1.0262e-05 0.771158
0.755 0.01 -0.00379405 -9.56249e-05 -9.77832e-06 0.735804
0.76 0.01 -0.00361312 -9.33718e-05 -9.30581e-06 0.70124
0.765 0.01 -0.00343647 -9.10886e-05 -8.84464e-06 0.66748
0.77 0.01 -0.00326416 -8.87797e-05 -8.39496e-06 0.634532
0.775 0.01 -0.00309622 -8.64491e-05 -7.95688e-06 0.602407
0.78 0.01 -0.0029327 -8.41006e-05 -7.5305e-06 0.571112
0.785 0.01 -0.00277362 -8.17377e-05 -7.1159e-06 0.540653
0.79 0.01 -0.00261903 -7.93638e-05 -6.71314e-06 0.511036
0.795 0.01 -0.00246892 -7.69819e-05 -6.32228e-06 0.482265
0.8 0.01 -0.00232333 -7.45949e-05 -5.94334e-06 0.454343
0.805 0.01 -0.00218225 -7.22053e-05 -5.57634e-06 0.427273
0.81 0.01 -0.0020457 -6.98155e-05 -5.22129e-06 0.401056
0.815 0.01 -0.00191368 -6.74278e-05 -4.87819e-06 0.375694
0.82 0.01 -0.00178617 -6.50439e-05 -4.54702e-06 0.351185
0.825 0.01 -0.00166318 -6.26658e-05 -4.22775e-06 0.327529
0.83 0.01 -0.0015447 -6.02948e-05 -3.92036e-06 0.304725
0.835 0.01 -0.00143071 -5.79323e-05 -3.6248e-06 0.282771
0.84 0.01 -0.0013212 -5.55795e-05 -3.34103e-06 0.261666
0.845 0.01 -0.00121615 -5.32375e-05 -3.069e-06 0.241406
0.85 0.01 -0.00111554 -5.09069e-05 -2.80865e-06 0.221989
0.855 0.01 -0.00101936 -4.85884e-05 -2.55992e-06 0.203412
0.86 0.01 -0.000927577 -4.62826e-05 -2.32276e-06 0.18567
0.865 0.01 -0.000840176 -4.39898e-05 -2.09709e-06 0.16876
0.87 0.01 -0.000757133 -4.17103e-05 -1.88285e-06 0.15268
0.875 0.01 -0.000678424 -3.94441e-05 -1.67998e-06 0.137423
0.88 0.01 -0.000604026 -3.71912e-05 -1.4884e-06 0.122987
0.885 0.01 -0.000533914 -3.49516e-05 -1.30805e-06 0.109368
0.89 0.01 -0.000468066 -3.2725e-05 -1.13887e-06 0.0965602
0.895 0.01 -0.000406457 -3.05111e-05 -9.80793e-07 0.0845604
0.9 0.01 -0.000349063 -2.83097e-05 -8.33752e-07 0.0733639
0.905 0.01 -0.000295862 -2.61204e-05 -6.97687e-07 0.0629661
0.91 0.01 -0.000246829 -2.39431e-05 -5.72539e-07 0.0533623
0.915 0.01 -0.000201939 -2.17776e-05 -4.58248e-07 0.0445475
0.92 0.01 -0.000161169 -1.9624e-05 -3.54755e-07 0.0365163
0.925 0.01 -0.00012449 -1.74827e-05 -2.62e-07 0.0292626
0.93 0.01 -9.18735e-05 -1.53549e-05 -1.79921e-07 0.0227797
0.935 0.01 -6.32858e-05 -1.32422e-05 -1.08445e-07 0.0170594
0.94 0.01 -3.86867e-05 -1.11479e-05 -4.74926e-08 0.012092
0.945 0.01 -1.80269e-05 -9.07656e-06 3.03817e-09 0.00786531
0.95 0.01 -1.24322e-06 -7.03574e-06 4.32772e-08 0.00436398
0.955 0.01 1.17471e-05 -5.0366e-06 7.33991e-08 0.00156794
0.96 0.01 2.10551e-05 -3.09597e-06 9.3646e-08 -0.00054923
0.965 0.01 2.68324e-05 -1.23913e-06 1.04361e-07 -0.0020227
0.97 0.01 2.92882e-05 4.95756e-07 1.06039e-07 -0.00289978
0.975 0.01 2.87151e-05 2.0506e-06 9.94045e-08 -0.00324429
0.98 0.01 2.5524e-05 3.33607e-06 8.55335e-08 -0.00314223
0.985 0.01 2.02951e-05 4.21447e-06 6.6044e-08 -0.00270792
0.99 0.01 1.38437e-05 4.47867e-06 4.33888e-08 -0.00208736
0.995 0.01 7.29511e-06 3.85093e-06 2.12572e-08 -0.00144764
1 0.01 2.12171e-06 2.12572e-06 4.8795e-09 -0.000918257
0 0.015 0 0 -0.00169736 0
0.005 0.015 0 0 0 -256.02
0.01 0.015 -0.152686 0.184568 -0.00179975 -79.3324
0.015 0.015 -0.205785 -0.0241304 -0.00184568 -16.6633
0.02 0.015 -0.203909 -0.0576622 -0.00155844 2.37437
0.025 0.015 -0.183902 -0.0522324 -0.00126906 8.0497
0.03 0.015 -0.160699 -0.0412015 -0.00103612 9.41427
0.035 0.015 -0.139276 -0.0316721 -0.000857045 9.31327
0.04 0.015 -0.120858 -0.0244905 -0.000719398 8.72513
0.045 0.015 -0.1054 -0.0192235 -0.00061214 8.00783
0.05 0.015 -0.0925028 -0.0153366 -0.000527163 7.29516
0.055 0.015 -0.0817266 -0.0124184 -0.000458774 6.63508
0.06 0.015 -0.0726838 -0.010184 -0.000402979 6.04164
0.065 0.015 -0.0650563 -0.00844081 -0.000356934 5.51538
0.07 0.015 -0.0585896 -0.00705808 -0.00031857 5.05172
0.075 0.015 -0.0530809 -0.00594536 -0.000286352 4.64444
0.08 0.015 -0.0483683 -0.00503878 -0.000259116 4.28714
0.085 0.015 -0.044322 -0.00429226 -0.000235964 3.97382
0.09 0.015 -0.0408368 -0.00367183 -0.000216193 3.69905
0.095 0.015 -0.0378268 -0.00315201 -0.000199245 3.45808
0.1 0.015 -0.0352219 -0.00271333 -0.000184672 3.24673
0.105 0.015 -0.0329638 -0.00234071 -0.000172111 3.06139
0.11 0.015 -0.0310043 -0.00202232 -0.000161264 2.89891
0.115 0.015 -0.0293028 -0.00174879 -0.000151887 2.75658
0.12 0.015 -0.0278255 -0.00151259 -0.000143776 2.63204
0.125 0.015 -0.0265435 -0.00130767 -0.00013676 2.52324
0.13 0.015 -0.0254327 -0.00112908 -0.000130698 2.4284
0.135 0.015 -0.0244721 -0.000972777 -0.000125469 2.34597
0.14 0.015 -0.023644 -0.00083544 -0.00012097 2.27461
0.145 0.015 -0.0229332 -0.000714303 -0.000117114 2.21313
0.15 0.015 -0.0223264 -0.000607069 -0.000113826 2.16049
0.155 0.015 -0.0218123 -0.000511817 -0.000111043 2.11579
0.16 0.015 -0.021381 -0.000426933 -0.000108707 2.07823
0.165 0.015 -0.0210237 -0.000351055 -0.000106773 2.0471
0.17 0.015 -0.020733 -0.000283034 -0.000105196 2.02176
0.175 0.015 -0.0205022 -0.00022189 -0.000103942 2.00167
0.18 0.015 -0.0203254 -0.000166793 -0.000102977 1.98633
0.185 0.015 -0.0201975 -0.000117033 -0.000102274 1.97528
0.19 0.015 -0.0201137 -7.20001e-05 -0.000101806 1.96815
0.195 0.015 -0.0200701 -3.1175e-05 -0.000101553 1.96456
0.2 0.015 -0.0200628 5.89058e-06 -0.000101494 1.96419
0.205 0.015 -0.0200887 3.95818e-05 -0.000101612 1.96676
0.21 0.015 -0.0201447 7.02305e-05 -0.00010189 1.97199
0.215 0.015 -0.020228 9.81231e-05 -0.000102314 1.97963
0.22 0.015 -0.0203363 0.000123507 -0.000102871 1.98948
0.225 0.015 -0.0204672 0.000146595 -0.000103549 2.00131
0.23 0.015 -0.0206187 0.000167572 -0.000104337 2.01495
0.235 0.015 -0.0207888 0.000186599 -0.000105224 2.0302
0.24 0.015 -0.0209758 0.000203812 -0.000106203 2.04692
0.245 0.015 -0.021178 0.000219332 -0.000107262 2.06493
0.25 0.015 -0.0213937 0.000233261 -0.000108396 2.08411
0.255 0.015 -0.0216216 0.00024569 -0.000109595 2.1043
0.26 0.015 -0.0218602 0.000256697 -0.000110853 2.12538
0.265 0.015 -0.0221082 0.000266348 -0.000112162 2.14723
0.27 0.015 -0.0223643 0.000274703 -0.000113516 2.16972
0.275 0.015 -0.0226273 0.000281813 -0.000114909 2.19275
0.28 0.015 -0.0228961 0.000287721 -0.000116335 2.2162
0.285 0.015 -0.0231694 0.000292469 -0.000117787 2.23997
0.29 0.015 -0.0234462 0.00029609 -0.00011926 2.26396
0.295 0.015 -0.0237255 0.000298615 -0.000120748 2.28807
0.3 0.015 -0.0240061 0.000300074 -0.000122246 2.31221
0.305 0.015 -0.0242871 0.00030049 -0.000123749 2.33628
0.31 0.015 -0.0245676 0.000299888 -0.000125252 2.36019
0.315 0.015 -0.0248465 0.000298291 -0.000126749 2.38386
0.32 0.015 -0.0251228 0.000295719 -0.000128235 2.4072
0.325 0.015 -0.0253958 0.000292193 -0.000129707 2.43014
0.33 0.015 -0.0256645 0.000287734 -0.000131158 2.45259
0.335 0.015 -0.025928 0.000282361 -0.000132585 2.47448
0.34 0.015 -0.0261855 0.000276097 -0.000133982 2.49573
0.345 0.015 -0.0264361 0.000268961 -0.000135346 2.51627
0.35 0.015 -0.0266791 0.000260976 -0.000136673 2.53603
0.355 0.015 -0.0269137 0.000252165 -0.000137957 2.55495
0.36 0.015 -0.0271391 0.000242551 -0.000139195 2.57296
0.365 0.015 -0.0273545 0.000232159 -0.000140383 2.59
0.37 0.015 -0.0275594 0.000221017 -0.000141518 2.606
0.375 0.015 -0.0277529 0.00020915 -0.000142594 2.62093
0.38 0.015 -0.0279344 0.000196589 -0.00014361 2.63471
0.385 0.015 -0.0281034 0.000183364 -0.000144561 2.64731
0.39 0.015 -0.0282593 0.000169506 -0.000145445 2.65868
0.395 0.015 -0.0284014 0.000155048 -0.000146258 2.66876
0.4 0.015 -0.0285292 0.000140026 -0.000146997 2.67753
0.405 0.015 -0.0286424 0.000124475 -0.000147659 2.68493
0.41 0.015 -0.0287403 0.000108432 -0.000148243 2.69095
0.415 0.015 -0.0288226 9.19361e-05 -0.000148745 2.69555
0.42 0.015 -0.028889 7.50269e-05 -0.000149163 2.6987
0.425 0.015 -0.028939 5.77451e-05 -0.000149496 2.70038
0.43 0.015 -0.0289724 4.01327e-05 -0.000149742 2.70056
0.435 0.015 -0.0289889 2.22322e-05 -0.000149899 2.69924
0.44 0.015 -0.0289883 4.08724e-06 -0.000149966 2.6964
0.445 0.015 -0.0289704 -1.42582e-05 -0.000149941 2.69202
0.45 0.015 -0.0289351 -3.27595e-05 -0.000149825 2.68611
0.455 0.015 -0.0288822 -5.13718e-05 -0.000149615 2.67866
0.46 0.015 -0.0288118 -7.00498e-05 -0.000149312 2.66967
0.465 0.015 -0.0287237 -8.87484e-05 -0.000148916 2.65915
0.47 0.015 -0.0286181 -0.000107423 -0.000148427 2.6471
0.475 0.015 -0.0284951 -0.000126027 -0.000147844 2.63354
0.48 0.015 -0.0283546 -0.000144518 -0.000147168 2.61848
0.485 0.015 -0.0281969 -0.000162852 -0.0001464 2.60194
0.49 0.015 -0.0280221 -0.000180984 -0.000145541 2.58394
0.495 0.015 -0.0278306 -0.000198874 -0.000144592 2.5645
0.5 0.015 -0.0276225 -0.00021648 -0.000143554 2.54366
0.505 0.015 -0.0273981 -0.000233762 -0.000142428 2.52144
0.51 0.015 -0.0271579 -0.000250682 -0.000141218 2.49787
0.515 0.015 -0.0269021 -0.000267202 -0.000139923 2.473
0.52 0.015 -0.0266312 -0.000283287 -0.000138547 2.44685
0.525 0.015 -0.0263456 -0.000298903 -0.000137092 2.41947
0.53 0.015 -0.0260458 -0.000314018 -0.00013556 2.3909
0.535 0.015 -0.0257323 -0.000328603 -0.000133953 2.36118
0.54 0.015 -0.0254056 -0.00034263 -0.000132275 2.33037
0.545 0.015 -0.0250662 -0.000356073 -0.000130528 2.29851
0.55 0.015 -0.0247147 -0.000368908 -0.000128716 2.26565
0.555 0.015 -0.0243517 -0.000381114 -0.000126841 2.23184
0.56 0.015 -0.0239777 -0.000392673 -0.000124906 2.19713
0.565 0.015 -0.0235935 -0.000403567 -0.000122915 2.16157
0.57 0.015 -0.0231996 -0.000413783 -0.000120872 2.12523
0.575 0.015 -0.0227966 -0.00042331 -0.000118779 2.08815
0.58 0.015 -0.0223853 -0.000432136 -0.00011664 2.05039
0.585 0.015 -0.0219663 -0.000440257 -0.000114459 2.012
0.59 0.015 -0.0215401 -0.000447667 -0.000112239 1.97305
0.595 0.015 -0.0211076 -0.000454363 -0.000109983 1.93358
0.6 0.015 -0.0206693 -0.000460346 -0.000107696 1.89366
0.605 0.015 -0.0202259 -0.000465619 -0.000105381 1.85333
0.61 0.015 -0.0197781 -0.000470184 -0.000103041 1.81266
0.615 0.015 -0.0193266 -0.00047405 -0.00010068 1.77169
0.62 0.015 -0.0188719 -0.000477223 -9.83016e-05 1.73049
0.625 0.015 -0.0184147 -0.000479715 -9.59089e-05 1.6891
0.63 0.015 -0.0179556 -0.000481537 -9.35054e-05 1.64757
0.635 0.015 -0.0174952 -0.000482703 -9.10945e-05 1.60597
0.64 0.015 -0.0170343 -0.000483228 -8.86793e-05 1.56433
0.645 0.015 -0.0165732 -0.000483128 -8.62631e-05 1.52271
0.65 0.015 -0.0161126 -0.000482422 -8.38489e-05 1.48115
0.655 0.015 -0.0156531 -0.000481129 -8.14397e-05 1.4397
0.66 0.015 -0.0151951 -0.000479269 -7.90384e-05 1.3984
0.665 0.015 -0.0147392 -0.000476862 -7.66477e-05 1.3573
0.67 0.015 -0.0142859 -0.00047393 -7.42705e-05 1.31644
0.675 0.015 -0.0138357 -0.000470496 -7.19091e-05 1.27586
0.68 0.015 -0.013389 -0.000466582 -6.95661e-05 1.23559
0.685 0.015 -0.0129462 -0.000462213 -6.72439e-05 1.19567
0.69 0.015 -0.0125078 -0.00045741 -6.49446e-05 1.15613
0.695 0.015 -0.0120741 -0.000452198 -6.26703e-05 1.11702
0.7 0.015 -0.0116455 -0.000446601 -6.04231e-05 1.07836
0.705 0.015 -0.0112224 -0.000440642 -5.82048e-05 1.04017
0.71 0.015 -0.0108051 -0.000434344 -5.60171e-05 1.00249
0.715 0.015 -0.0103939 -0.000427731 -5.38618e-05 0.965349
0.72 0.015 -0.00998906 -0.000420825 -5.17402e-05 0.92876
0.725 0.015 -0.00959084 -0.000413649 -4.96539e-05 0.89275
0.73 0.015 -0.00919949 -0.000406225 -4.7604e-05 0.85734
0.735 0.015 -0.00881525 -0.000398573 -4.55919e-05 0.822549
0.74 0.015 -0.00843831 -0.000390714 -4.36186e-05 0.788396
0.745 0.015 -0.00806885 -0.000382668 -4.1685e-05 0.754896
0.75 0.015 -0.00770705 -0.000374454 -3.97921e-05 0.722065
0.755 0.015 -0.00735306 -0.000366091 -3.79407e-05 0.689915
0.76 0.015 -0.007007 -0.000357595 -3.61314e-05 0.658459
0.765 0.015 -0.006669 -0.000348984 -3.43649e-05 0.627709
0.77 0.015 -0.00633916 -0.000340272 -3.26417e-05 0.597673
0.775 0.015 -0.00601758 -0.000331476 -3.09623e-05 0.56836
0.78 0.015 -0.00570432 -0.000322608 -2.93271e-05 0.539777
0.785 0.015 -0.00539945 -0.000313683 -2.77363e-05 0.511932
0.79 0.015 -0.00510302 -0.000304711 -2.61903e-05 0.484829
0.795 0.015 -0.00481508 -0.000295705 -2.46893e-05 0.458474
0.8 0.015 -0.00453566 -0.000286676 -2.32334e-05 0.432869
0.805 0.015 -0.00426477 -0.000277631 -2.18226e-05 0.408018
0.81 0.015 -0.00400244 -0.000268581 -2.04571e-05 0.383923
0.815 0.015 -0.00374866 -0.000259534 -1.91368e-05 0.360585
0.82 0.015 -0.00350345 -0.000250496 -1.78618e-05 0.338007