Title=" Lid Driven Flow"
VARIABLES="X","Y","U","V","psi","xi"
ZONE T= "BOX", I= 201, J=201, F=POINT
0 0 0 0 0.00301739 0
0.005 0 0 0 0 0
0.01 0 0 0 0 0
0.015 0 0 0 0 161.891
0.02 0 0 0 0 176.123
0.025 0 0 0 0 155.603
0.03 0 0 0 0 133.213
0.035 0 0 0 0 115.694
0.04 0 0 0 0 102.84
0.045 0 0 0 0 93.3075
0.05 0 0 0 0 85.9855
0.055 0 0 0 0 80.1411
0.06 0 0 0 0 75.3158
0.065 0 0 0 0 71.2208
0.07 0 0 0 0 67.6684
0.075 0 0 0 0 64.5322
0.08 0 0 0 0 61.724
0.085 0 0 0 0 59.1805
0.09 0 0 0 0 56.8549
0.095 0 0 0 0 54.7121
0.1 0 0 0 0 52.7254
0.105 0 0 0 0 50.8738
0.11 0 0 0 0 49.1407
0.115 0 0 0 0 47.5128
0.12 0 0 0 0 45.9792
0.125 0 0 0 0 44.531
0.13 0 0 0 0 43.1605
0.135 0 0 0 0 41.8614
0.14 0 0 0 0 40.628
0.145 0 0 0 0 39.4554
0.15 0 0 0 0 38.3392
0.155 0 0 0 0 37.2757
0.16 0 0 0 0 36.2612
0.165 0 0 0 0 35.2926
0.17 0 0 0 0 34.3668
0.175 0 0 0 0 33.4813
0.18 0 0 0 0 32.6333
0.185 0 0 0 0 31.8205
0.19 0 0 0 0 31.0408
0.195 0 0 0 0 30.2919
0.2 0 0 0 0 29.572
0.205 0 0 0 0 28.8791
0.21 0 0 0 0 28.2116
0.215 0 0 0 0 27.5677
0.22 0 0 0 0 26.9458
0.225 0 0 0 0 26.3446
0.23 0 0 0 0 25.7626
0.235 0 0 0 0 25.1984
0.24 0 0 0 0 24.6508
0.245 0 0 0 0 24.1187
0.25 0 0 0 0 23.6009
0.255 0 0 0 0 23.0963
0.26 0 0 0 0 22.6041
0.265 0 0 0 0 22.1232
0.27 0 0 0 0 21.6527
0.275 0 0 0 0 21.192
0.28 0 0 0 0 20.7401
0.285 0 0 0 0 20.2964
0.29 0 0 0 0 19.8603
0.295 0 0 0 0 19.4311
0.3 0 0 0 0 19.0082
0.305 0 0 0 0 18.5911
0.31 0 0 0 0 18.1794
0.315 0 0 0 0 17.7725
0.32 0 0 0 0 17.3702
0.325 0 0 0 0 16.9719
0.33 0 0 0 0 16.5775
0.335 0 0 0 0 16.1866
0.34 0 0 0 0 15.7989
0.345 0 0 0 0 15.4143
0.35 0 0 0 0 15.0324
0.355 0 0 0 0 14.6533
0.36 0 0 0 0 14.2767
0.365 0 0 0 0 13.9026
0.37 0 0 0 0 13.5308
0.375 0 0 0 0 13.1614
0.38 0 0 0 0 12.7942
0.385 0 0 0 0 12.4294
0.39 0 0 0 0 12.0669
0.395 0 0 0 0 11.7068
0.4 0 0 0 0 11.3492
0.405 0 0 0 0 10.9941
0.41 0 0 0 0 10.6416
0.415 0 0 0 0 10.292
0.42 0 0 0 0 9.94522
0.425 0 0 0 0 9.60155
0.43 0 0 0 0 9.26113
0.435 0 0 0 0 8.92413
0.44 0 0 0 0 8.59074
0.445 0 0 0 0 8.26117
0.45 0 0 0 0 7.93562
0.455 0 0 0 0 7.61429
0.46 0 0 0 0 7.2974
0.465 0 0 0 0 6.98518
0.47 0 0 0 0 6.67783
0.475 0 0 0 0 6.37558
0.48 0 0 0 0 6.07863
0.485 0 0 0 0 5.78721
0.49 0 0 0 0 5.5015
0.495 0 0 0 0 5.22171
0.5 0 0 0 0 4.94803
0.505 0 0 0 0 4.68064
0.51 0 0 0 0 4.4197
0.515 0 0 0 0 4.16538
0.52 0 0 0 0 3.9178
0.525 0 0 0 0 3.67711
0.53 0 0 0 0 3.44342
0.535 0 0 0 0 3.21682
0.54 0 0 0 0 2.9974
0.545 0 0 0 0 2.78521
0.55 0 0 0 0 2.58032
0.555 0 0 0 0 2.38275
0.56 0 0 0 0 2.19251
0.565 0 0 0 0 2.0096
0.57 0 0 0 0 1.834
0.575 0 0 0 0 1.66568
0.58 0 0 0 0 1.50457
0.585 0 0 0 0 1.35062
0.59 0 0 0 0 1.20373
0.595 0 0 0 0 1.06381
0.6 0 0 0 0 0.930744
0.605 0 0 0 0 0.804414
0.61 0 0 0 0 0.684681
0.615 0 0 0 0 0.571399
0.62 0 0 0 0 0.464412
0.625 0 0 0 0 0.363554
0.63 0 0 0 0 0.268655
0.635 0 0 0 0 0.179534
0.64 0 0 0 0 0.0960087
0.645 0 0 0 0 0.0178896
0.65 0 0 0 0 -0.0550157
0.655 0 0 0 0 -0.122902
0.66 0 0 0 0 -0.185967
0.665 0 0 0 0 -0.244409
0.67 0 0 0 0 -0.298426
0.675 0 0 0 0 -0.348218
0.68 0 0 0 0 -0.393983
0.685 0 0 0 0 -0.43592
0.69 0 0 0 0 -0.474224
0.695 0 0 0 0 -0.509091
0.7 0 0 0 0 -0.540714
0.705 0 0 0 0 -0.569284
0.71 0 0 0 0 -0.59499
0.715 0 0 0 0 -0.618017
0.72 0 0 0 0 -0.638548
0.725 0 0 0 0 -0.656761
0.73 0 0 0 0 -0.672829
0.735 0 0 0 0 -0.686921
0.74 0 0 0 0 -0.699198
0.745 0 0 0 0 -0.709814
0.75 0 0 0 0 -0.718916
0.755 0 0 0 0 -0.72664
0.76 0 0 0 0 -0.733112
0.765 0 0 0 0 -0.738446
0.77 0 0 0 0 -0.742744
0.775 0 0 0 0 -0.746092
0.78 0 0 0 0 -0.748565
0.785 0 0 0 0 -0.750219
0.79 0 0 0 0 -0.751098
0.795 0 0 0 0 -0.751227
0.8 0 0 0 0 -0.750617
0.805 0 0 0 0 -0.749263
0.81 0 0 0 0 -0.747146
0.815 0 0 0 0 -0.744232
0.82 0 0 0 0 -0.740475
0.825 0 0 0 0 -0.735817
0.83 0 0 0 0 -0.730191
0.835 0 0 0 0 -0.723522
0.84 0 0 0 0 -0.71573
0.845 0 0 0 0 -0.706732
0.85 0 0 0 0 -0.696442
0.855 0 0 0 0 -0.684779
0.86 0 0 0 0 -0.671663
0.865 0 0 0 0 -0.657026
0.87 0 0 0 0 -0.640804
0.875 0 0 0 0 -0.622951
0.88 0 0 0 0 -0.603433
0.885 0 0 0 0 -0.582235
0.89 0 0 0 0 -0.55936
0.895 0 0 0 0 -0.534838
0.9 0 0 0 0 -0.508718
0.905 0 0 0 0 -0.48108
0.91 0 0 0 0 -0.452029
0.915 0 0 0 0 -0.421701
0.92 0 0 0 0 -0.390262
0.925 0 0 0 0 -0.357908
0.93 0 0 0 0 -0.32487
0.935 0 0 0 0 -0.29141
0.94 0 0 0 0 -0.257822
0.945 0 0 0 0 -0.224436
0.95 0 0 0 0 -0.191612
0.955 0 0 0 0 -0.159747
0.96 0 0 0 0 -0.129268
0.965 0 0 0 0 -0.100639
0.97 0 0 0 0 -0.0743547
0.975 0 0 0 0 -0.0509403
0.98 0 0 0 0 -0.0309442
0.985 0 0 0 0 -0.0149192
0.99 0 0 0 0 -0.00338052
0.995 0 0 0 0 0.00329728
1 0 0 0 0 0.0051194
0 0.005 0 0 0 0
0.005 0.005 0 0 0 0
0.01 0.005 0 0 0 73.7279
0.015 0.005 0 0 0 62.0634
0.02 0.005 0 0 0 45.7088
0.025 0.005 0 0 0 33.9384
0.03 0.005 0 0 0 26.0416
0.035 0.005 0 0 0 20.6175
0.04 0.005 0 0 0 16.7235
0.045 0.005 0 0 0 13.8068
0.05 0.005 0 0 0 11.547
0.055 0.005 0 0 0 9.75147
0.06 0.005 0 0 0 8.29925
0.065 0.005 0 0 0 7.10991
0.07 0.005 0 0 0 6.12737
0.075 0.005 0 0 0 5.3108
0.08 0.005 0 0 0 4.62943
0.085 0.005 0 0 0 4.05938
0.09 0.005 0 0 0 3.58172
0.095 0.005 0 0 0 3.18123
0.1 0.005 0 0 0 2.84549
0.105 0.005 0 0 0 2.5643
0.11 0.005 0 0 0 2.32922
0.115 0.005 0 0 0 2.13325
0.12 0.005 0 0 0 1.97054
0.125 0.005 0 0 0 1.83622
0.13 0.005 0 0 0 1.72618
0.135 0.005 0 0 0 1.63702
0.14 0.005 0 0 0 1.56585
0.145 0.005 0 0 0 1.51026
0.15 0.005 0 0 0 1.46822
0.155 0.005 0 0 0 1.43803
0.16 0.005 0 0 0 1.41825
0.165 0.005 0 0 0 1.40768
0.17 0.005 0 0 0 1.40529
0.175 0.005 0 0 0 1.41024
0.18 0.005 0 0 0 1.4218
0.185 0.005 0 0 0 1.43936
0.19 0.005 0 0 0 1.46239
0.195 0.005 0 0 0 1.49047
0.2 0.005 0 0 0 1.52322
0.205 0.005 0 0 0 1.56031
0.21 0.005 0 0 0 1.60148
0.215 0.005 0 0 0 1.64648
0.22 0.005 0 0 0 1.69511
0.225 0.005 0 0 0 1.74717
0.23 0.005 0 0 0 1.80251
0.235 0.005 0 0 0 1.86097
0.24 0.005 0 0 0 1.92242
0.245 0.005 0 0 0 1.98674
0.25 0.005 0 0 0 2.05378
0.255 0.005 0 0 0 2.12345
0.26 0.005 0 0 0 2.19563
0.265 0.005 0 0 0 2.27021
0.27 0.005 0 0 0 2.34707
0.275 0.005 0 0 0 2.4261
0.28 0.005 0 0 0 2.5072
0.285 0.005 0 0 0 2.59023
0.29 0.005 0 0 0 2.6751
0.295 0.005 0 0 0 2.76167
0.3 0.005 0 0 0 2.84982
0.305 0.005 0 0 0 2.93942
0.31 0.005 0 0 0 3.03033
0.315 0.005 0 0 0 3.12243
0.32 0.005 0 0 0 3.21556
0.325 0.005 0 0 0 3.30959
0.33 0.005 0 0 0 3.40435
0.335 0.005 0 0 0 3.4997
0.34 0.005 0 0 0 3.59547
0.345 0.005 0 0 0 3.6915
0.35 0.005 0 0 0 3.78762
0.355 0.005 0 0 0 3.88366
0.36 0.005 0 0 0 3.97945
0.365 0.005 0 0 0 4.07479
0.37 0.005 0 0 0 4.16952
0.375 0.005 0 0 0 4.26344
0.38 0.005 0 0 0 4.35637
0.385 0.005 0 0 0 4.44813
0.39 0.005 0 0 0 4.5385
0.395 0.005 0 0 0 4.62732
0.4 0.005 0 0 0 4.71438
0.405 0.005 0 0 0 4.79949
0.41 0.005 0 0 0 4.88245
0.415 0.005 0 0 0 4.96308
0.42 0.005 0 0 0 5.04119
0.425 0.005 0 0 0 5.11658
0.43 0.005 0 0 0 5.18907
0.435 0.005 0 0 0 5.25848
0.44 0.005 0 0 0 5.32461
0.445 0.005 0 0 0 5.38731
0.45 0.005 0 0 0 5.44639
0.455 0.005 0 0 0 5.50169
0.46 0.005 0 0 0 5.55305
0.465 0.005 0 0 0 5.60031
0.47 0.005 0 0 0 5.64332
0.475 0.005 0 0 0 5.68195
0.48 0.005 0 0 0 5.71605
0.485 0.005 0 0 0 5.74551
0.49 0.005 0 0 0 5.7702
0.495 0.005 0 0 0 5.79002
0.5 0.005 0 0 0 5.80488
0.505 0.005 0 0 0 5.81467
0.51 0.005 0 0 0 5.81934
0.515 0.005 0 0 0 5.81882
0.52 0.005 0 0 0 5.81304
0.525 0.005 0 0 0 5.80198
0.53 0.005 0 0 0 5.78559
0.535 0.005 0 0 0 5.76387
0.54 0.005 0 0 0 5.73681
0.545 0.005 0 0 0 5.70443
0.55 0.005 0 0 0 5.66674
0.555 0.005 0 0 0 5.62378
0.56 0.005 0 0 0 5.57561
0.565 0.005 0 0 0 5.52228
0.57 0.005 0 0 0 5.46388
0.575 0.005 0 0 0 5.40049
0.58 0.005 0 0 0 5.33223
0.585 0.005 0 0 0 5.25921
0.59 0.005 0 0 0 5.18157
0.595 0.005 0 0 0 5.09944
0.6 0.005 0 0 0 5.013
0.605 0.005 0 0 0 4.9224
0.61 0.005 0 0 0 4.82784
0.615 0.005 0 0 0 4.7295
0.62 0.005 0 0 0 4.62759
0.625 0.005 0 0 0 4.52232
0.63 0.005 0 0 0 4.41393
0.635 0.005 0 0 0 4.30263
0.64 0.005 0 0 0 4.18867
0.645 0.005 0 0 0 4.07231
0.65 0.005 0 0 0 3.95379
0.655 0.005 0 0 0 3.83337
0.66 0.005 0 0 0 3.71132
0.665 0.005 0 0 0 3.5879
0.67 0.005 0 0 0 3.46339
0.675 0.005 0 0 0 3.33806
0.68 0.005 0 0 0 3.21216
0.685 0.005 0 0 0 3.08599
0.69 0.005 0 0 0 2.9598
0.695 0.005 0 0 0 2.83386
0.7 0.005 0 0 0 2.70843
0.705 0.005 0 0 0 2.58377
0.71 0.005 0 0 0 2.46014
0.715 0.005 0 0 0 2.33776
0.72 0.005 0 0 0 2.21689
0.725 0.005 0 0 0 2.09774
0.73 0.005 0 0 0 1.98054
0.735 0.005 0 0 0 1.86549
0.74 0.005 0 0 0 1.75279
0.745 0.005 0 0 0 1.64262
0.75 0.005 0 0 0 1.53517
0.755 0.005 0 0 0 1.43058
0.76 0.005 0 0 0 1.32901
0.765 0.005 0 0 0 1.23059
0.77 0.005 0 0 0 1.13544
0.775 0.005 0 0 0 1.04367
0.78 0.005 0 0 0 0.955368
0.785 0.005 0 0 0 0.870615
0.79 0.005 0 0 0 0.789475
0.795 0.005 0 0 0 0.712
0.8 0.005 0 0 0 0.638227
0.805 0.005 0 0 0 0.568182
0.81 0.005 0 0 0 0.501875
0.815 0.005 0 0 0 0.439307
0.82 0.005 0 0 0 0.380464
0.825 0.005 0 0 0 0.325322
0.83 0.005 0 0 0 0.273847
0.835 0.005 0 0 0 0.225993
0.84 0.005 0 0 0 0.181706
0.845 0.005 0 0 0 0.140922
0.85 0.005 0 0 0 0.10357
0.855 0.005 0 0 0 0.0695708
0.86 0.005 0 0 0 0.0388376
0.865 0.005 0 0 0 0.0112789
0.87 0.005 0 0 0 -0.0132029
0.875 0.005 0 0 0 -0.0347099
0.88 0.005 0 0 0 -0.0533487
0.885 0.005 0 0 0 -0.0692291
0.89 0.005 0 0 0 -0.0824643
0.895 0.005 0 0 0 -0.0931702
0.9 0.005 0 0 0 -0.101465
0.905 0.005 0 0 0 -0.10747
0.91 0.005 0 0 0 -0.111308
0.915 0.005 0 0 0 -0.113104
0.92 0.005 0 0 0 -0.112988
0.925 0.005 0 0 0 -0.11109
0.93 0.005 0 0 0 -0.107549
0.935 0.005 0 0 0 -0.102507
0.94 0.005 0 0 0 -0.0961149
0.945 0.005 0 0 0 -0.0885354
0.95 0.005 0 0 0 -0.079944
0.955 0.005 0 0 0 -0.0705348
0.96 0.005 0 0 0 -0.060526
0.965 0.005 0 0 0 -0.0501667
0.97 0.005 0 0 0 -0.0397458
0.975 0.005 0 0 0 -0.0296035
0.98 0.005 0 0 0 -0.0201435
0.985 0.005 0 0 0 -0.0118447
0.99 0.005 0 0 0 -0.0052605
0.995 0.005 0 0 0 -0.000970857
1 0.005 0 0 0 0.000624209
0 0.01 0 0 0.000624209 0
0.005 0.01 0 0 0 -326.272
0.01 0.01 -0.180037 0.0775792 -0.000921599 -44.4095
0.015 0.01 -0.184827 -0.0350239 -0.000775792 9.52264
0.02 0.01 -0.156321 -0.0351562 -0.000571361 19.1115
0.025 0.01 -0.127473 -0.0245841 -0.00042423 18.9877
0.03 0.01 -0.104076 -0.0166511 -0.00032552 16.8251
0.035 0.01 -0.0858788 -0.0116476 -0.000257719 14.499
0.04 0.01 -0.0716819 -0.00851332 -0.000209043 12.438
0.045 0.01 -0.0604356 -0.00647064 -0.000172586 10.6957
0.05 0.01 -0.0513786 -0.00506922 -0.000144337 9.23669
0.055 0.01 -0.0439815 -0.00405963 -0.000121893 8.01276
0.06 0.01 -0.0378736 -0.00330195 -0.000103741 6.98162
0.065 0.01 -0.0327894 -0.00271486 -8.88738e-05 6.10926
0.07 0.01 -0.028533 -0.00224888 -7.6592e-05 5.36884
0.075 0.01 -0.0249555 -0.00187241 -6.6385e-05 4.73901
0.08 0.01 -0.021941 -0.00156428 -5.78678e-05 4.20261
0.085 0.01 -0.0193969 -0.00130963 -5.07422e-05 3.74558
0.09 0.01 -0.0172486 -0.00109768 -4.47714e-05 3.3563
0.095 0.01 -0.0154347 -0.000920285 -3.97653e-05 3.02502
0.1 0.01 -0.0139044 -0.000771157 -3.55685e-05 2.74356
0.105 0.01 -0.0126155 -0.000645326 -3.20537e-05 2.50498
0.11 0.01 -0.0115326 -0.000538802 -2.91152e-05 2.30337
0.115 0.01 -0.0106258 -0.000448342 -2.66656e-05 2.13369
0.12 0.01 -0.00987002 -0.000371288 -2.46317e-05 1.99166
0.125 0.01 -0.00924418 -0.000305444 -2.29526e-05 1.8736
0.13 0.01 -0.00873034 -0.000248991 -2.15772e-05 1.77639
0.135 0.01 -0.0083134 -0.000200413 -2.04627e-05 1.69734
0.14 0.01 -0.00798054 -0.000158445 -1.9573e-05 1.63416
0.145 0.01 -0.00772095 -0.000122029 -1.88782e-05 1.5849
0.15 0.01 -0.00752544 -9.02804e-05 -1.83527e-05 1.54788
0.155 0.01 -0.00738626 -6.2456e-05 -1.79753e-05 1.52168
0.16 0.01 -0.0072968 -3.79335e-05 -1.77281e-05 1.50508
0.165 0.01 -0.00725151 -1.61907e-05 -1.75959e-05 1.49702
0.17 0.01 -0.00724563 3.21026e-06 -1.75661e-05 1.49663
0.175 0.01 -0.00727515 2.06366e-05 -1.7628e-05 1.50313
0.18 0.01 -0.00733667 3.63958e-05 -1.77725e-05 1.51587
0.185 0.01 -0.00742726 5.07449e-05 -1.79919e-05 1.53429
0.19 0.01 -0.00754446 6.38988e-05 -1.82799e-05 1.55791
0.195 0.01 -0.00768613 7.60363e-05 -1.86309e-05 1.58632
0.2 0.01 -0.00785047 8.7306e-05 -1.90402e-05 1.61914
0.205 0.01 -0.00803589 9.78311e-05 -1.95039e-05 1.65608
0.21 0.01 -0.00824103 0.000107713 -2.00185e-05 1.69685
0.215 0.01 -0.0084647 0.000117035 -2.0581e-05 1.74121
0.22 0.01 -0.00870584 0.000125865 -2.11888e-05 1.78895
0.225 0.01 -0.00896353 0.000134257 -2.18396e-05 1.83988
0.23 0.01 -0.00923691 0.000142257 -2.25313e-05 1.89382
0.235 0.01 -0.00952521 0.000149897 -2.32621e-05 1.95061
0.24 0.01 -0.00982773 0.000157205 -2.40303e-05 2.0101
0.245 0.01 -0.0101438 0.000164202 -2.48342e-05 2.07215
0.25 0.01 -0.0104728 0.000170901 -2.56723e-05 2.13663
0.255 0.01 -0.010814 0.000177313 -2.65432e-05 2.20342
0.26 0.01 -0.011167 0.000183443 -2.74454e-05 2.27238
0.265 0.01 -0.0115311 0.000189295 -2.83776e-05 2.34339
0.27 0.01 -0.0119058 0.000194868 -2.93384e-05 2.41633
0.275 0.01 -0.0122904 0.00020016 -3.03263e-05 2.49109
0.28 0.01 -0.0126844 0.000205165 -3.13399e-05 2.56753
0.285 0.01 -0.0130871 0.000209879 -3.23779e-05 2.64554
0.29 0.01 -0.0134981 0.000214292 -3.34387e-05 2.72498
0.295 0.01 -0.0139165 0.000218398 -3.45209e-05 2.80574
0.3 0.01 -0.0143419 0.000222185 -3.56227e-05 2.88768
0.305 0.01 -0.0147736 0.000225645 -3.67427e-05 2.97067
0.31 0.01 -0.0152108 0.000228765 -3.78792e-05 3.05456
0.315 0.01 -0.0156529 0.000231536 -3.90304e-05 3.13924
0.32 0.01 -0.0160991 0.000233946 -4.01946e-05 3.22454
0.325 0.01 -0.0165489 0.000235983 -4.13699e-05 3.31033
0.33 0.01 -0.0170013 0.000237637 -4.25544e-05 3.39646
0.335 0.01 -0.0174556 0.000238895 -4.37463e-05 3.48277
0.34 0.01 -0.0179112 0.000239749 -4.49434e-05 3.56912
0.345 0.01 -0.018367 0.000240186 -4.61438e-05 3.65534
0.35 0.01 -0.0188224 0.000240197 -4.73453e-05 3.74129
0.355 0.01 -0.0192765 0.000239774 -4.85458e-05 3.82679
0.36 0.01 -0.0197284 0.000238906 -4.97431e-05 3.91168
0.365 0.01 -0.0201773 0.000237586 -5.0935e-05 3.99581
0.37 0.01 -0.0206223 0.000235806 -5.21191e-05 4.079
0.375 0.01 -0.0210626 0.000233562 -5.32931e-05 4.16109
0.38 0.01 -0.0214972 0.000230846 -5.44548e-05 4.2419
0.385 0.01 -0.0219252 0.000227654 -5.56016e-05 4.32129
0.39 0.01 -0.0223459 0.000223984 -5.67314e-05 4.39906
0.395 0.01 -0.0227582 0.000219833 -5.78416e-05 4.47507
0.4 0.01 -0.0231612 0.000215199 -5.89298e-05 4.54913
0.405 0.01 -0.0235541 0.000210083 -5.99937e-05 4.6211
0.41 0.01 -0.023936 0.000204486 -6.10308e-05 4.69079
0.415 0.01 -0.024306 0.00019841 -6.20387e-05 4.75806
0.42 0.01 -0.0246633 0.00019186 -6.3015e-05 4.82275
0.425 0.01 -0.0250068 0.000184839 -6.39574e-05 4.8847
0.43 0.01 -0.0253359 0.000177356 -6.48635e-05 4.94375
0.435 0.01 -0.0256497 0.000169417 -6.57311e-05 4.99976
0.44 0.01 -0.0259473 0.000161031 -6.65578e-05 5.05259
0.445 0.01 -0.026228 0.00015221 -6.73415e-05 5.10209
0.45 0.01 -0.0264911 0.000142964 -6.80801e-05 5.14814
0.455 0.01 -0.0267357 0.000133308 -6.87713e-05 5.1906
0.46 0.01 -0.0269611 0.000123256 -6.94133e-05 5.22934
0.465 0.01 -0.0271668 0.000112824 -7.00041e-05 5.26427
0.47 0.01 -0.027352 0.00010203 -7.05417e-05 5.29526
0.475 0.01 -0.0275161 9.08915e-05 -7.10245e-05 5.3222
0.48 0.01 -0.0276585 7.94299e-05 -7.14508e-05 5.34502
0.485 0.01 -0.0277788 6.76662e-05 -7.1819e-05 5.36362
0.49 0.01 -0.0278764 5.56232e-05 -7.21277e-05 5.37791
0.495 0.01 -0.0279509 4.33249e-05 -7.23755e-05 5.38784
0.5 0.01 -0.0280019 3.07966e-05 -7.25611e-05 5.39333
0.505 0.01 -0.028029 1.80647e-05 -7.26836e-05 5.39434
0.51 0.01 -0.0280319 5.15655e-06 -7.2742e-05 5.39082
0.515 0.01 -0.0280105 -7.89915e-06 -7.27354e-05 5.38274
0.52 0.01 -0.0279644 -2.10729e-05 -7.26632e-05 5.37007
0.525 0.01 -0.0278936 -3.43342e-05 -7.25249e-05 5.3528
0.53 0.01 -0.027798 -4.76518e-05 -7.23201e-05 5.33093
0.535 0.01 -0.0276775 -6.09935e-05 -7.20486e-05 5.30446
0.54 0.01 -0.0275323 -7.43268e-05 -7.17104e-05 5.27342
0.545 0.01 -0.0273623 -8.76182e-05 -7.13056e-05 5.23782
0.55 0.01 -0.0271677 -0.000100834 -7.08345e-05 5.19771
0.555 0.01 -0.0269489 -0.00011394 -7.02975e-05 5.15315
0.56 0.01 -0.0267059 -0.000126902 -6.96953e-05 5.10418
0.565 0.01 -0.0264393 -0.000139686 -6.90287e-05 5.05088
0.57 0.01 -0.0261493 -0.000152257 -6.82987e-05 4.99333
0.575 0.01 -0.0258364 -0.000164581 -6.75064e-05 4.93162
0.58 0.01 -0.0255012 -0.000176624 -6.66531e-05 4.86586
0.585 0.01 -0.0251443 -0.000188352 -6.57404e-05 4.79616
0.59 0.01 -0.0247662 -0.000199733 -6.47698e-05 4.72265
0.595 0.01 -0.0243677 -0.000210734 -6.37433e-05 4.64545
0.6 0.01 -0.0239495 -0.000221325 -6.26627e-05 4.56471
0.605 0.01 -0.0235124 -0.000231474 -6.15303e-05 4.48057
0.61 0.01 -0.0230574 -0.000241154 -6.03482e-05 4.39321
0.615 0.01 -0.0225852 -0.000250335 -5.9119e-05 4.30278
0.62 0.01 -0.0220969 -0.000258993 -5.78451e-05 4.20947
0.625 0.01 -0.0215934 -0.000267102 -5.65293e-05 4.11345
0.63 0.01 -0.0210758 -0.00027464 -5.51743e-05 4.01493
0.635 0.01 -0.0205451 -0.000281586 -5.37831e-05 3.91408
0.64 0.01 -0.0200025 -0.000287921 -5.23586e-05 3.81112
0.645 0.01 -0.0194491 -0.000293629 -5.09041e-05 3.70625
0.65 0.01 -0.0188861 -0.000298694 -4.94226e-05 3.59969
0.655 0.01 -0.0183146 -0.000303105 -4.79173e-05 3.49165
0.66 0.01 -0.0177359 -0.000306852 -4.63917e-05 3.38234
0.665 0.01 -0.0171511 -0.000309929 -4.4849e-05 3.272
0.67 0.01 -0.0165616 -0.00031233 -4.32926e-05 3.16083
0.675 0.01 -0.0159685 -0.000314053 -4.17259e-05 3.04906
0.68 0.01 -0.0153731 -0.0003151 -4.01522e-05 2.93691
0.685 0.01 -0.0147765 -0.000315473 -3.8575e-05 2.82461
0.69 0.01 -0.0141801 -0.000315178 -3.69977e-05 2.71237
0.695 0.01 -0.0135851 -0.000314224 -3.54234e-05 2.60041
0.7 0.01 -0.0129925 -0.000312622 -3.38556e-05 2.48895
0.705 0.01 -0.0124036 -0.000310385 -3.22973e-05 2.37819
0.71 0.01 -0.0118196 -0.00030753 -3.07518e-05 2.26834
0.715 0.01 -0.0112415 -0.000304075 -2.92221e-05 2.1596
0.72 0.01 -0.0106705 -0.00030004 -2.77112e-05 2.05217
0.725 0.01 -0.0101075 -0.000295448 -2.62218e-05 1.94622
0.73 0.01 -0.00955353 -0.000290324 -2.47568e-05 1.84195
0.735 0.01 -0.00900959 -0.000284695 -2.33187e-05 1.73952
0.74 0.01 -0.00847655 -0.000278587 -2.19099e-05 1.6391
0.745 0.01 -0.00795527 -0.000272032 -2.05329e-05 1.54083
0.75 0.01 -0.00744654 -0.00026506 -1.91897e-05 1.44488
0.755 0.01 -0.0069511 -0.000257703 -1.78823e-05 1.35136
0.76 0.01 -0.00646964 -0.000249994 -1.66127e-05 1.26042
0.765 0.01 -0.00600277 -0.000241967 -1.53824e-05 1.17215
0.77 0.01 -0.00555107 -0.000233657 -1.41931e-05 1.08667
0.775 0.01 -0.00511502 -0.000225097 -1.30459e-05 1.00407
0.78 0.01 -0.00469506 -0.000216323 -1.19421e-05 0.92443
0.785 0.01 -0.00429158 -0.00020737 -1.08827e-05 0.847823
0.79 0.01 -0.00390488 -0.000198271 -9.86846e-06 0.774308
0.795 0.01 -0.00353521 -0.000189061 -8.90001e-06 0.703936
0.8 0.01 -0.00318277 -0.000179774 -7.97785e-06 0.636745
0.805 0.01 -0.00284768 -0.000170441 -7.10228e-06 0.572762
0.81 0.01 -0.00253002 -0.000161094 -6.27344e-06 0.512004
0.815 0.01 -0.00222981 -0.000151765 -5.49133e-06 0.454479
0.82 0.01 -0.00194699 -0.000142481 -4.75579e-06 0.400184
0.825 0.01 -0.00168148 -0.00013327 -4.06651e-06 0.349106
0.83 0.01 -0.00143314 -0.00012416 -3.42307e-06 0.301223
0.835 0.01 -0.00120178 -0.000115175 -2.8249e-06 0.256505
0.84 0.01 -0.000987169 -0.000106337 -2.27131e-06 0.214914
0.845 0.01 -0.000789021 -9.76678e-05 -1.76151e-06 0.176403
0.85 0.01 -0.000607027 -8.91876e-05 -1.29461e-06 0.140918
0.855 0.01 -0.000440836 -8.09138e-05 -8.69612e-07 0.108398
0.86 0.01 -0.000290065 -7.28626e-05 -4.85447e-07 0.0787772
0.865 0.01 -0.000154301 -6.50483e-05 -1.40962e-07 0.0519815
0.87 0.01 -3.3104e-05 -5.74836e-05 1.65061e-07 0.0279333
0.875 0.01 7.39902e-05 -5.01797e-05 4.33899e-07 0.00654944
0.88 0.01 0.000167467 -4.31464e-05 6.66883e-07 -0.0122575
0.885 0.01 0.00024783 -3.6392e-05 8.65388e-07 -0.0285792
0.89 0.01 0.000315603 -2.9924e-05 1.03083e-06 -0.0425108
0.895 0.01 0.000371321 -2.37488e-05 1.16465e-06 -0.0541514
0.9 0.01 0.000415536 -1.78726e-05 1.26834e-06 -0.0636029
0.905 0.01 0.000448815 -1.2301e-05 1.3434e-06 -0.0709709
0.91 0.01 0.000471735 -7.04031e-06 1.39137e-06 -0.0763643
0.915 0.01 0.000484893 -2.09727e-06 1.41382e-06 -0.0798954
0.92 0.01 0.000488899 2.5198e-06 1.41236e-06 -0.0816807
0.925 0.01 0.000484386 6.80044e-06 1.38864e-06 -0.0818414
0.93 0.01 0.00047201 1.07311e-05 1.34438e-06 -0.080504
0.935 0.01 0.00045246 1.42939e-05 1.28135e-06 -0.0778019
0.94 0.01 0.000426465 1.74655e-05 1.20145e-06 -0.0738765
0.945 0.01 0.000394804 2.0215e-05 1.1067e-06 -0.0688795
0.95 0.01 0.00035832 2.25019e-05 9.9931e-07 -0.0629749
0.955 0.01 0.000317942 2.42734e-05 8.81694e-07 -0.0563418
0.96 0.01 0.000274697 2.5461e-05 7.56582e-07 -0.0491774
0.965 0.01 0.000229746 2.59759e-05 6.27089e-07 -0.0417007
0.97 0.01 0.000184404 2.57045e-05 4.96827e-07 -0.034155
0.975 0.01 0.000140179 2.45033e-05 3.70047e-07 -0.0268094
0.98 0.01 9.87952e-05 2.21988e-05 2.51796e-07 -0.0199552
0.985 0.01 6.21968e-05 1.86039e-05 1.48059e-07 -0.0138914
0.99 0.01 3.24917e-05 1.35924e-05 6.57564e-08 -0.00888351
0.995 0.01 1.17194e-05 7.35591e-06 1.21356e-08 -0.00506425
1 0.01 1.21093e-06 1.21356e-06 -7.80275e-09 -0.00221825
0 0.015 0 0 -0.000968742 0
0.005 0.015 0 0 0 -255.971
0.01 0.015 -0.152836 0.184827 -0.00180037 -79.2655
0.015 0.015 -0.206188 -0.0237159 -0.00184827 -16.6424
0.02 0.015 -0.204507 -0.0573545 -0.00156321 2.31864
0.025 0.015 -0.184492 -0.0522449 -0.00127473 7.93698
0.03 0.015 -0.161011 -0.0415942 -0.00104076 9.26535
0.035 0.015 -0.139054 -0.0323939 -0.000858788 9.1363
0.04 0.015 -0.119901 -0.0254432 -0.000716819 8.51869
0.045 0.015 -0.103581 -0.0203033 -0.000604356 7.76635
0.05 0.015 -0.0897617 -0.0164541 -0.000513786 7.01268
0.055 0.015 -0.0780631 -0.013505 -0.000439815 6.30723
0.06 0.015 -0.0681412 -0.011192 -0.000378736 5.66634
0.065 0.015 -0.0597085 -0.00934057 -0.000327894 5.09288
0.07 0.015 -0.0525293 -0.00783388 -0.00028533 4.58425
0.075 0.015 -0.0464105 -0.00659206 -0.000249555 4.13576
0.08 0.015 -0.041193 -0.00555863 -0.000219409 3.74209
0.085 0.015 -0.0367442 -0.00469236 -0.000193969 3.39787
0.09 0.015 -0.0329534 -0.0039622 -0.000172486 3.098
0.095 0.015 -0.029727 -0.00334412 -0.000154347 2.83775
0.1 0.015 -0.0269857 -0.00281911 -0.000139044 2.61278
0.105 0.015 -0.0246623 -0.00237183 -0.000126155 2.41917
0.11 0.015 -0.0226994 -0.00198975 -0.000115326 2.25341
0.115 0.015 -0.0210481 -0.00166254 -0.000106257 2.11232
0.12 0.015 -0.0196665 -0.00138157 -9.87e-05 1.99312
0.125 0.015 -0.018519 -0.00113966 -9.24415e-05 1.89331
0.13 0.015 -0.017575 -0.000930759 -8.73032e-05 1.8107
0.135 0.015 -0.0168085 -0.000749778 -8.31337e-05 1.74336
0.14 0.015 -0.0161971 -0.000592426 -7.98052e-05 1.68958
0.145 0.015 -0.0157218 -0.000455078 -7.72093e-05 1.64788
0.15 0.015 -0.0153664 -0.000334673 -7.52542e-05 1.61697
0.155 0.015 -0.0151169 -0.00022862 -7.38624e-05 1.59569
0.16 0.015 -0.0149614 -0.000134732 -7.29679e-05 1.58305
0.165 0.015 -0.0148899 -5.11573e-05 -7.25149e-05 1.5782
0.17 0.015 -0.0148935 2.36655e-05 -7.24561e-05 1.58038
0.175 0.015 -0.014965 9.10553e-05 -7.27514e-05 1.58892
0.18 0.015 -0.0150979 0.000152124 -7.33665e-05 1.60327
0.185 0.015 -0.0152868 0.000207805 -7.42725e-05 1.62291
0.19 0.015 -0.0155269 0.000258886 -7.54444e-05 1.6474
0.195 0.015 -0.0158143 0.000306023 -7.68612e-05 1.67636
0.2 0.015 -0.0161454 0.000349767 -7.85045e-05 1.70946
0.205 0.015 -0.0165172 0.000390574 -8.03587e-05 1.74639
0.21 0.015 -0.016927 0.000428824 -8.24102e-05 1.78688
0.215 0.015 -0.0173724 0.000464828 -8.46469e-05 1.8307
0.22 0.015 -0.0178514 0.000498842 -8.70583e-05 1.87762
0.225 0.015 -0.0183621 0.000531075 -8.96352e-05 1.92746
0.23 0.015 -0.0189027 0.000561693 -9.2369e-05 1.98003
0.235 0.015 -0.0194717 0.000590828 -9.52521e-05 2.03515
0.24 0.015 -0.0200676 0.000618585 -9.82772e-05 2.09269
0.245 0.015 -0.020689 0.000645041 -0.000101438 2.15247
0.25 0.015 -0.0213347 0.000670254 -0.000104728 2.21437
0.255 0.015 -0.0220033 0.000694265 -0.00010814 2.27825
0.26 0.015 -0.0226937 0.000717097 -0.00011167 2.34396
0.265 0.015 -0.0234046 0.000738764 -0.000115311 2.41138
0.27 0.015 -0.0241349 0.000759267 -0.000119058 2.48037
0.275 0.015 -0.0248832 0.000778599 -0.000122904 2.55081
0.28 0.015 -0.0256484 0.000796747 -0.000126844 2.62257
0.285 0.015 -0.0264293 0.000813688 -0.000130871 2.69551
0.29 0.015 -0.0272246 0.000829399 -0.000134981 2.76951
0.295 0.015 -0.0280331 0.00084385 -0.000139166 2.84443
0.3 0.015 -0.0288534 0.000857007 -0.000143419 2.92013
0.305 0.015 -0.0296842 0.000868837 -0.000147736 2.99649
0.31 0.015 -0.0305242 0.000879302 -0.000152108 3.07336
0.315 0.015 -0.031372 0.000888366 -0.000156529 3.15061
0.32 0.015 -0.0322262 0.00089599 -0.000160992 3.22809
0.325 0.015 -0.0330853 0.000902136 -0.000165489 3.30566
0.33 0.015 -0.0339478 0.000906767 -0.000170013 3.38319
0.335 0.015 -0.0348122 0.000909846 -0.000174557 3.46051
0.34 0.015 -0.0356771 0.000911338 -0.000179112 3.53749
0.345 0.015 -0.0365407 0.00091121 -0.00018367 3.61399
0.35 0.015 -0.0374017 0.000909431 -0.000188224 3.68984
0.355 0.015 -0.0382582 0.000905971 -0.000192765 3.76491
0.36 0.015 -0.0391088 0.000900804 -0.000197284 3.83904
0.365 0.015 -0.0399517 0.000893906 -0.000201773 3.91209
0.37 0.015 -0.0407854 0.000885258 -0.000206223 3.9839
0.375 0.015 -0.0416081 0.000874843 -0.000210626 4.05434
0.38 0.015 -0.0424182 0.000862648 -0.000214972 4.12325
0.385 0.015 -0.0432139 0.000848663 -0.000219253 4.19049
0.39 0.015 -0.0439937 0.000832882 -0.000223459 4.25591
0.395 0.015 -0.0447558 0.000815306 -0.000227582 4.31938
0.4 0.015 -0.0454986 0.000795936 -0.000231613 4.38075
0.405 0.015 -0.0462204 0.000774781 -0.000235542 4.43989
0.41 0.015 -0.0469196 0.000751852 -0.000239361 4.49667
0.415 0.015 -0.0475946 0.000727167 -0.000243061 4.55095
0.42 0.015 -0.0482438 0.000700745 -0.000246633 4.60261
0.425 0.015 -0.0488656 0.000672615 -0.000250069 4.65153
0.43 0.015 -0.0494586 0.000642805 -0.00025336 4.69759
0.435 0.015 -0.0500211 0.000611353 -0.000256497 4.74067
0.44 0.015 -0.0505518 0.000578299 -0.000259474 4.78067
0.445 0.015 -0.0510493 0.000543688 -0.000262281 4.81749
0.45 0.015 -0.0515123 0.000507571 -0.000264911 4.85103
0.455 0.015 -0.0519394 0.000470002 -0.000267357 4.88119
0.46 0.015 -0.0523293 0.000431043 -0.000269612 4.90789
0.465 0.015 -0.052681 0.000390757 -0.000271668 4.93106
0.47 0.015 -0.0529933 0.000349213 -0.00027352 4.95061
0.475 0.015 -0.0532653 0.000306487 -0.000275161 4.96649
0.48 0.015 -0.0534958 0.000262657 -0.000276586 4.97863
0.485 0.015 -0.0536841 0.000217805 -0.000277789 4.98698
0.49 0.015 -0.0538293 0.000172019 -0.000278765 4.99151
0.495 0.015 -0.0539308 0.000125389 -0.00027951 4.99216
0.5 0.015 -0.0539878 7.80127e-05 -0.000280019 4.98892
0.505 0.015 -0.054 2.99874e-05 -0.000280291 4.98175
0.51 0.015 -0.0539667 -1.85838e-05 -0.00028032 4.97066
0.515 0.015 -0.0538877 -6.75949e-05 -0.000280106 4.95562
0.52 0.015 -0.0537628 -0.000116937 -0.000279645 4.93665
0.525 0.015 -0.0535917 -0.000166498 -0.000278937 4.91376
0.53 0.015 -0.0533744 -0.000216163 -0.000277981 4.88696
0.535 0.015 -0.0531111 -0.000265816 -0.000276776 4.85628
0.54 0.015 -0.0528018 -0.000315339 -0.000275324 4.82176
0.545 0.015 -0.0524468 -0.000364611 -0.000273624 4.78344
0.55 0.015 -0.0520466 -0.00041351 -0.000271678 4.74137
0.555 0.015 -0.0516016 -0.000461915 -0.00026949 4.69561
0.56 0.015 -0.0511123 -0.000509703 -0.00026706 4.64623
0.565 0.015 -0.0505796 -0.000556752 -0.000264393 4.5933
0.57 0.015 -0.0500042 -0.000602939 -0.000261494 4.53692
0.575 0.015 -0.049387 -0.000648144 -0.000258365 4.47716
0.58 0.015 -0.0487291 -0.000692247 -0.000255013 4.41412
0.585 0.015 -0.0480316 -0.00073513 -0.000251443 4.34792
0.59 0.015 -0.0472957 -0.000776678 -0.000247663 4.27867
0.595 0.015 -0.0465228 -0.000816779 -0.000243678 4.20648
0.6 0.015 -0.0457142 -0.000855322 -0.000239496 4.13147
0.605 0.015 -0.0448715 -0.000892205 -0.000235125 4.05379
0.61 0.015 -0.0439963 -0.000927325 -0.000230575 3.97357
0.615 0.015 -0.0430903 -0.000960586 -0.000225853 3.89095
0.62 0.015 -0.0421553 -0.000991899 -0.00022097 3.80608
0.625 0.015 -0.041193 -0.00102118 -0.000215935 3.71911
0.63 0.015 -0.0402055 -0.00104835 -0.000210759 3.6302
0.635 0.015 -0.0391946 -0.00107333 -0.000205452 3.53952
0.64 0.015 -0.0381624 -0.00109607 -0.000200026 3.44722
0.645 0.015 -0.037111 -0.00111651 -0.000194492 3.35348
0.65 0.015 -0.0360425 -0.00113459 -0.000188862 3.25847
0.655 0.015 -0.0349591 -0.00115028 -0.000183147 3.16236
0.66 0.015 -0.0338629 -0.00116355 -0.00017736 3.06532
0.665 0.015 -0.0327563 -0.00117437 -0.000171512 2.96753
0.67 0.015 -0.0316413 -0.00118272 -0.000165617 2.86917
0.675 0.015 -0.0305203 -0.00118861 -0.000159686 2.77041
0.68 0.015 -0.0293955 -0.00119203 -0.000153731 2.67143
0.685 0.015 -0.0282691 -0.001193 -0.000147766 2.57241
0.69 0.015 -0.0271433 -0.00119154 -0.000141802 2.47351
0.695 0.015 -0.0260203 -0.00118768 -0.000135851 2.37492
0.7 0.015 -0.0249023 -0.00118146 -0.000129926 2.2768
0.705 0.015 -0.0237914 -0.00117294 -0.000124037 2.17932
0.71 0.015 -0.0226896 -0.00116216 -0.000118197 2.08263
0.715 0.015 -0.021599 -0.00114919 -0.000112416 1.98691
0.72 0.015 -0.0205215 -0.00113411 -0.000106705 1.8923
0.725 0.015 -0.019459 -0.00111699 -0.000101075 1.79896
0.73 0.015 -0.0184134 -0.00109793 -9.55357e-05 1.70703
0.735 0.015 -0.0173862 -0.00107702 -9.00962e-05 1.61664
0.74 0.015 -0.0163793 -0.00105435 -8.47658e-05 1.52794
0.745 0.015 -0.0153941 -0.00103004 -7.9553e-05 1.44104
0.75 0.015 -0.0144321 -0.0010042 -7.44657e-05 1.35607
0.755 0.015 -0.0134947 -0.000976927 -6.95113e-05 1.27314
0.76 0.015 -0.0125831 -0.000948353 -6.46966e-05 1.19235
0.765 0.015 -0.0116984 -0.000918595 -6.00279e-05 1.1138
0.77 0.015 -0.0108418 -0.000887776 -5.55108e-05 1.03758
0.775 0.015 -0.0100142 -0.00085602 -5.11503e-05 0.963768
0.78 0.015 -0.00921635 -0.000823452 -4.69507e-05 0.892437
0.785 0.015 -0.00844898 -0.000790195 -4.29159e-05 0.823652
0.79 0.015 -0.00771272 -0.000756375 -3.90489e-05 0.757469
0.795 0.015 -0.00700805 -0.000722115 -3.53522e-05 0.693935
0.8 0.015 -0.00633534 -0.000687534 -3.18278e-05 0.633088
0.805 0.015 -0.00569489 -0.000652751 -2.84769e-05 0.574958
0.81 0.015 -0.00508684 -0.000617881 -2.53003e-05 0.519569
0.815 0.015 -0.00451127 -0.000583036 -2.22981e-05 0.466934
0.82 0.015 -0.00396815 -0.000548323 -1.94699e-05 0.417058
0.825 0.015 -0.00345733 -0.000513843 -1.68148e-05 0.369939
0.83 0.015 -0.00297861 -0.000479696 -1.43314e-05 0.325569