Title=" Lid Driven Flow"
VARIABLES="X","Y","U","V","psi","xi"
ZONE T= "BOX", I= 201, J=201, F=POINT
0 0 0 0 0.00110149 0
0.005 0 0 0 0 0
0.01 0 0 0 0 0
0.015 0 0 0 0 161.889
0.02 0 0 0 0 176.131
0.025 0 0 0 0 155.635
0.03 0 0 0 0 133.279
0.035 0 0 0 0 115.795
0.04 0 0 0 0 102.973
0.045 0 0 0 0 93.4641
0.05 0 0 0 0 86.1554
0.055 0 0 0 0 80.3124
0.06 0 0 0 0 75.476
0.065 0 0 0 0 71.3578
0.07 0 0 0 0 67.7711
0.075 0 0 0 0 64.5906
0.08 0 0 0 0 61.7294
0.085 0 0 0 0 59.1257
0.09 0 0 0 0 56.7341
0.095 0 0 0 0 54.5208
0.1 0 0 0 0 52.4603
0.105 0 0 0 0 50.5326
0.11 0 0 0 0 48.7221
0.115 0 0 0 0 47.0165
0.12 0 0 0 0 45.4054
0.125 0 0 0 0 43.8806
0.13 0 0 0 0 42.4348
0.135 0 0 0 0 41.062
0.14 0 0 0 0 39.7569
0.145 0 0 0 0 38.5147
0.15 0 0 0 0 37.3314
0.155 0 0 0 0 36.203
0.16 0 0 0 0 35.126
0.165 0 0 0 0 34.0972
0.17 0 0 0 0 33.1137
0.175 0 0 0 0 32.1725
0.18 0 0 0 0 31.2711
0.185 0 0 0 0 30.4069
0.19 0 0 0 0 29.5776
0.195 0 0 0 0 28.781
0.2 0 0 0 0 28.0149
0.205 0 0 0 0 27.2773
0.21 0 0 0 0 26.5663
0.215 0 0 0 0 25.8801
0.22 0 0 0 0 25.2171
0.225 0 0 0 0 24.5755
0.23 0 0 0 0 23.954
0.235 0 0 0 0 23.3509
0.24 0 0 0 0 22.765
0.245 0 0 0 0 22.1951
0.25 0 0 0 0 21.6398
0.255 0 0 0 0 21.098
0.26 0 0 0 0 20.5688
0.265 0 0 0 0 20.0512
0.27 0 0 0 0 19.5441
0.275 0 0 0 0 19.0469
0.28 0 0 0 0 18.5586
0.285 0 0 0 0 18.0786
0.29 0 0 0 0 17.6063
0.295 0 0 0 0 17.141
0.3 0 0 0 0 16.6823
0.305 0 0 0 0 16.2296
0.31 0 0 0 0 15.7825
0.315 0 0 0 0 15.3407
0.32 0 0 0 0 14.9038
0.325 0 0 0 0 14.4715
0.33 0 0 0 0 14.0438
0.335 0 0 0 0 13.6203
0.34 0 0 0 0 13.2009
0.345 0 0 0 0 12.7856
0.35 0 0 0 0 12.3743
0.355 0 0 0 0 11.967
0.36 0 0 0 0 11.5638
0.365 0 0 0 0 11.1646
0.37 0 0 0 0 10.7696
0.375 0 0 0 0 10.3789
0.38 0 0 0 0 9.99255
0.385 0 0 0 0 9.61085
0.39 0 0 0 0 9.23392
0.395 0 0 0 0 8.86198
0.4 0 0 0 0 8.49525
0.405 0 0 0 0 8.13395
0.41 0 0 0 0 7.77833
0.415 0 0 0 0 7.42864
0.42 0 0 0 0 7.08513
0.425 0 0 0 0 6.74806
0.43 0 0 0 0 6.41767
0.435 0 0 0 0 6.09422
0.44 0 0 0 0 5.77796
0.445 0 0 0 0 5.4691
0.45 0 0 0 0 5.16788
0.455 0 0 0 0 4.87451
0.46 0 0 0 0 4.58917
0.465 0 0 0 0 4.31205
0.47 0 0 0 0 4.0433
0.475 0 0 0 0 3.78305
0.48 0 0 0 0 3.53143
0.485 0 0 0 0 3.28853
0.49 0 0 0 0 3.0544
0.495 0 0 0 0 2.82912
0.5 0 0 0 0 2.61268
0.505 0 0 0 0 2.40509
0.51 0 0 0 0 2.20634
0.515 0 0 0 0 2.01635
0.52 0 0 0 0 1.83507
0.525 0 0 0 0 1.66241
0.53 0 0 0 0 1.49824
0.535 0 0 0 0 1.34243
0.54 0 0 0 0 1.19483
0.545 0 0 0 0 1.05527
0.55 0 0 0 0 0.92356
0.555 0 0 0 0 0.799507
0.56 0 0 0 0 0.682895
0.565 0 0 0 0 0.5735
0.57 0 0 0 0 0.47109
0.575 0 0 0 0 0.375423
0.58 0 0 0 0 0.286252
0.585 0 0 0 0 0.203326
0.59 0 0 0 0 0.126387
0.595 0 0 0 0 0.055179
0.6 0 0 0 0 -0.0105571
0.605 0 0 0 0 -0.0710795
0.61 0 0 0 0 -0.126645
0.615 0 0 0 0 -0.177508
0.62 0 0 0 0 -0.22392
0.625 0 0 0 0 -0.266127
0.63 0 0 0 0 -0.304371
0.635 0 0 0 0 -0.33889
0.64 0 0 0 0 -0.369913
0.645 0 0 0 0 -0.397664
0.65 0 0 0 0 -0.422358
0.655 0 0 0 0 -0.444205
0.66 0 0 0 0 -0.463405
0.665 0 0 0 0 -0.480149
0.67 0 0 0 0 -0.494621
0.675 0 0 0 0 -0.506994
0.68 0 0 0 0 -0.517434
0.685 0 0 0 0 -0.526094
0.69 0 0 0 0 -0.53312
0.695 0 0 0 0 -0.538648
0.7 0 0 0 0 -0.542804
0.705 0 0 0 0 -0.545705
0.71 0 0 0 0 -0.547456
0.715 0 0 0 0 -0.548156
0.72 0 0 0 0 -0.547894
0.725 0 0 0 0 -0.546749
0.73 0 0 0 0 -0.544793
0.735 0 0 0 0 -0.542091
0.74 0 0 0 0 -0.538697
0.745 0 0 0 0 -0.534663
0.75 0 0 0 0 -0.530032
0.755 0 0 0 0 -0.524841
0.76 0 0 0 0 -0.519123
0.765 0 0 0 0 -0.512905
0.77 0 0 0 0 -0.506212
0.775 0 0 0 0 -0.499064
0.78 0 0 0 0 -0.491479
0.785 0 0 0 0 -0.48347
0.79 0 0 0 0 -0.475052
0.795 0 0 0 0 -0.466234
0.8 0 0 0 0 -0.457027
0.805 0 0 0 0 -0.44744
0.81 0 0 0 0 -0.437482
0.815 0 0 0 0 -0.427161
0.82 0 0 0 0 -0.416484
0.825 0 0 0 0 -0.405461
0.83 0 0 0 0 -0.394101
0.835 0 0 0 0 -0.382412
0.84 0 0 0 0 -0.370407
0.845 0 0 0 0 -0.358095
0.85 0 0 0 0 -0.345489
0.855 0 0 0 0 -0.332604
0.86 0 0 0 0 -0.319453
0.865 0 0 0 0 -0.306054
0.87 0 0 0 0 -0.292425
0.875 0 0 0 0 -0.278586
0.88 0 0 0 0 -0.264559
0.885 0 0 0 0 -0.250368
0.89 0 0 0 0 -0.23604
0.895 0 0 0 0 -0.221604
0.9 0 0 0 0 -0.207092
0.905 0 0 0 0 -0.192541
0.91 0 0 0 0 -0.177989
0.915 0 0 0 0 -0.163479
0.92 0 0 0 0 -0.149061
0.925 0 0 0 0 -0.134786
0.93 0 0 0 0 -0.120714
0.935 0 0 0 0 -0.106911
0.94 0 0 0 0 -0.0934476
0.945 0 0 0 0 -0.0804064
0.95 0 0 0 0 -0.067877
0.955 0 0 0 0 -0.0559597
0.96 0 0 0 0 -0.0447663
0.965 0 0 0 0 -0.0344208
0.97 0 0 0 0 -0.0250604
0.975 0 0 0 0 -0.0168352
0.98 0 0 0 0 -0.00990638
0.985 0 0 0 0 -0.00443966
0.99 0 0 0 0 -0.000589307
0.995 0 0 0 0 0.00154003
1 0 0 0 0 0.00198135
0 0.005 0 0 0 0
0.005 0.005 0 0 0 0
0.01 0.005 0 0 0 73.7256
0.015 0.005 0 0 0 61.9993
0.02 0.005 0 0 0 45.5601
0.025 0.005 0 0 0 33.74
0.03 0.005 0 0 0 25.8539
0.035 0.005 0 0 0 20.4985
0.04 0.005 0 0 0 16.7158
0.045 0.005 0 0 0 13.936
0.05 0.005 0 0 0 11.8233
0.055 0.005 0 0 0 10.1738
0.06 0.005 0 0 0 8.85871
0.065 0.005 0 0 0 7.79264
0.07 0.005 0 0 0 6.91697
0.075 0.005 0 0 0 6.18998
0.08 0.005 0 0 0 5.58112
0.085 0.005 0 0 0 5.06749
0.09 0.005 0 0 0 4.63156
0.095 0.005 0 0 0 4.2597
0.1 0.005 0 0 0 3.94117
0.105 0.005 0 0 0 3.66737
0.11 0.005 0 0 0 3.43138
0.115 0.005 0 0 0 3.22755
0.12 0.005 0 0 0 3.05126
0.125 0.005 0 0 0 2.89867
0.13 0.005 0 0 0 2.76659
0.135 0.005 0 0 0 2.65234
0.14 0.005 0 0 0 2.55368
0.145 0.005 0 0 0 2.46868
0.15 0.005 0 0 0 2.39572
0.155 0.005 0 0 0 2.33341
0.16 0.005 0 0 0 2.28056
0.165 0.005 0 0 0 2.23612
0.17 0.005 0 0 0 2.1992
0.175 0.005 0 0 0 2.16901
0.18 0.005 0 0 0 2.14488
0.185 0.005 0 0 0 2.1262
0.19 0.005 0 0 0 2.11244
0.195 0.005 0 0 0 2.10313
0.2 0.005 0 0 0 2.09785
0.205 0.005 0 0 0 2.09623
0.21 0.005 0 0 0 2.09794
0.215 0.005 0 0 0 2.10266
0.22 0.005 0 0 0 2.11012
0.225 0.005 0 0 0 2.12007
0.23 0.005 0 0 0 2.13229
0.235 0.005 0 0 0 2.14657
0.24 0.005 0 0 0 2.1627
0.245 0.005 0 0 0 2.18051
0.25 0.005 0 0 0 2.19983
0.255 0.005 0 0 0 2.2205
0.26 0.005 0 0 0 2.24237
0.265 0.005 0 0 0 2.26529
0.27 0.005 0 0 0 2.28915
0.275 0.005 0 0 0 2.31379
0.28 0.005 0 0 0 2.33911
0.285 0.005 0 0 0 2.36499
0.29 0.005 0 0 0 2.3913
0.295 0.005 0 0 0 2.41794
0.3 0.005 0 0 0 2.44479
0.305 0.005 0 0 0 2.47177
0.31 0.005 0 0 0 2.49876
0.315 0.005 0 0 0 2.52566
0.32 0.005 0 0 0 2.55238
0.325 0.005 0 0 0 2.57883
0.33 0.005 0 0 0 2.6049
0.335 0.005 0 0 0 2.63052
0.34 0.005 0 0 0 2.65559
0.345 0.005 0 0 0 2.68004
0.35 0.005 0 0 0 2.70376
0.355 0.005 0 0 0 2.7267
0.36 0.005 0 0 0 2.74876
0.365 0.005 0 0 0 2.76987
0.37 0.005 0 0 0 2.78996
0.375 0.005 0 0 0 2.80896
0.38 0.005 0 0 0 2.8268
0.385 0.005 0 0 0 2.84342
0.39 0.005 0 0 0 2.85876
0.395 0.005 0 0 0 2.87275
0.4 0.005 0 0 0 2.88535
0.405 0.005 0 0 0 2.8965
0.41 0.005 0 0 0 2.90615
0.415 0.005 0 0 0 2.91427
0.42 0.005 0 0 0 2.92081
0.425 0.005 0 0 0 2.92573
0.43 0.005 0 0 0 2.929
0.435 0.005 0 0 0 2.9306
0.44 0.005 0 0 0 2.93051
0.445 0.005 0 0 0 2.92869
0.45 0.005 0 0 0 2.92514
0.455 0.005 0 0 0 2.91984
0.46 0.005 0 0 0 2.9128
0.465 0.005 0 0 0 2.904
0.47 0.005 0 0 0 2.89344
0.475 0.005 0 0 0 2.88114
0.48 0.005 0 0 0 2.86711
0.485 0.005 0 0 0 2.85135
0.49 0.005 0 0 0 2.83389
0.495 0.005 0 0 0 2.81475
0.5 0.005 0 0 0 2.79395
0.505 0.005 0 0 0 2.77153
0.51 0.005 0 0 0 2.74751
0.515 0.005 0 0 0 2.72194
0.52 0.005 0 0 0 2.69486
0.525 0.005 0 0 0 2.6663
0.53 0.005 0 0 0 2.63632
0.535 0.005 0 0 0 2.60497
0.54 0.005 0 0 0 2.57229
0.545 0.005 0 0 0 2.53834
0.55 0.005 0 0 0 2.50318
0.555 0.005 0 0 0 2.46686
0.56 0.005 0 0 0 2.42945
0.565 0.005 0 0 0 2.391
0.57 0.005 0 0 0 2.35158
0.575 0.005 0 0 0 2.31126
0.58 0.005 0 0 0 2.27009
0.585 0.005 0 0 0 2.22814
0.59 0.005 0 0 0 2.18548
0.595 0.005 0 0 0 2.14218
0.6 0.005 0 0 0 2.09829
0.605 0.005 0 0 0 2.05389
0.61 0.005 0 0 0 2.00904
0.615 0.005 0 0 0 1.9638
0.62 0.005 0 0 0 1.91824
0.625 0.005 0 0 0 1.87242
0.63 0.005 0 0 0 1.8264
0.635 0.005 0 0 0 1.78025
0.64 0.005 0 0 0 1.73402
0.645 0.005 0 0 0 1.68776
0.65 0.005 0 0 0 1.64154
0.655 0.005 0 0 0 1.59542
0.66 0.005 0 0 0 1.54943
0.665 0.005 0 0 0 1.50363
0.67 0.005 0 0 0 1.45807
0.675 0.005 0 0 0 1.4128
0.68 0.005 0 0 0 1.36787
0.685 0.005 0 0 0 1.3233
0.69 0.005 0 0 0 1.27915
0.695 0.005 0 0 0 1.23545
0.7 0.005 0 0 0 1.19224
0.705 0.005 0 0 0 1.14955
0.71 0.005 0 0 0 1.10741
0.715 0.005 0 0 0 1.06586
0.72 0.005 0 0 0 1.02491
0.725 0.005 0 0 0 0.984609
0.73 0.005 0 0 0 0.944966
0.735 0.005 0 0 0 0.906007
0.74 0.005 0 0 0 0.867752
0.745 0.005 0 0 0 0.83022
0.75 0.005 0 0 0 0.793427
0.755 0.005 0 0 0 0.75739
0.76 0.005 0 0 0 0.722121
0.765 0.005 0 0 0 0.687635
0.77 0.005 0 0 0 0.653941
0.775 0.005 0 0 0 0.62105
0.78 0.005 0 0 0 0.588971
0.785 0.005 0 0 0 0.55771
0.79 0.005 0 0 0 0.527275
0.795 0.005 0 0 0 0.497672
0.8 0.005 0 0 0 0.468904
0.805 0.005 0 0 0 0.440976
0.81 0.005 0 0 0 0.413891
0.815 0.005 0 0 0 0.387651
0.82 0.005 0 0 0 0.362258
0.825 0.005 0 0 0 0.337714
0.83 0.005 0 0 0 0.314019
0.835 0.005 0 0 0 0.291173
0.84 0.005 0 0 0 0.269177
0.845 0.005 0 0 0 0.24803
0.85 0.005 0 0 0 0.227732
0.855 0.005 0 0 0 0.208281
0.86 0.005 0 0 0 0.189677
0.865 0.005 0 0 0 0.171919
0.87 0.005 0 0 0 0.155006
0.875 0.005 0 0 0 0.138936
0.88 0.005 0 0 0 0.123708
0.885 0.005 0 0 0 0.109321
0.89 0.005 0 0 0 0.0957741
0.895 0.005 0 0 0 0.0830663
0.9 0.005 0 0 0 0.0711966
0.905 0.005 0 0 0 0.0601643
0.91 0.005 0 0 0 0.0499689
0.915 0.005 0 0 0 0.0406098
0.92 0.005 0 0 0 0.0320866
0.925 0.005 0 0 0 0.0243987
0.93 0.005 0 0 0 0.0175454
0.935 0.005 0 0 0 0.0115255
0.94 0.005 0 0 0 0.006337
0.945 0.005 0 0 0 0.00197649
0.95 0.005 0 0 0 -0.00156151
0.955 0.005 0 0 0 -0.00428585
0.96 0.005 0 0 0 -0.00621042
0.965 0.005 0 0 0 -0.00735681
0.97 0.005 0 0 0 -0.00775825
0.975 0.005 0 0 0 -0.00746582
0.98 0.005 0 0 0 -0.00655816
0.985 0.005 0 0 0 -0.00515692
0.99 0.005 0 0 0 -0.00345099
0.995 0.005 0 0 0 -0.00173076
1 0.005 0 0 0 -0.000418346
0 0.01 0 0 -0.000418346 0
0.005 0.01 0 0 0 -326.274
0.01 0.01 -0.17997 0.0774991 -0.00092157 -44.4637
0.015 0.01 -0.184546 -0.0352068 -0.000774991 9.4628
0.02 0.01 -0.155803 -0.0353241 -0.000569502 19.0705
0.025 0.01 -0.126855 -0.0246327 -0.00042175 18.9691
0.03 0.01 -0.103568 -0.0165519 -0.000323174 16.8386
0.035 0.01 -0.0856836 -0.0114227 -0.000256231 14.5614
0.04 0.01 -0.0719545 -0.0082031 -0.000208947 12.5674
0.045 0.01 -0.0612724 -0.00611568 -0.0001742 10.9065
0.05 0.01 -0.0528223 -0.0047027 -0.000147791 9.53731
0.055 0.01 -0.0460315 -0.00370567 -0.000127173 8.40594
0.06 0.01 -0.0404984 -0.00297647 -0.000110734 7.46516
0.065 0.01 -0.0359367 -0.00242717 -9.74079e-05 6.67724
0.07 0.01 -0.0321387 -0.00200331 -8.6462e-05 6.01284
0.075 0.01 -0.0289502 -0.0016698 -7.73746e-05 5.44917
0.08 0.01 -0.0262547 -0.0014031 -6.97639e-05 4.96839
0.085 0.01 -0.0239626 -0.00118694 -6.33435e-05 4.55643
0.09 0.01 -0.0220039 -0.00100972 -5.78943e-05 4.20203
0.095 0.01 -0.0203229 -0.000862973 -5.32461e-05 3.89614
0.1 0.01 -0.0188754 -0.000740399 -4.92644e-05 3.63139
0.105 0.01 -0.0176255 -0.000637217 -4.58419e-05 3.40174
0.11 0.01 -0.0165437 -0.000549749 -4.2892e-05 3.2022
0.115 0.01 -0.015606 -0.000475124 -4.03442e-05 3.02863
0.12 0.01 -0.0147924 -0.000411082 -3.81406e-05 2.87755
0.125 0.01 -0.0140861 -0.000355821 -3.62332e-05 2.74605
0.13 0.01 -0.0134733 -0.000307893 -3.45822e-05 2.63166
0.135 0.01 -0.0129421 -0.000266126 -3.31541e-05 2.53228
0.14 0.01 -0.0124824 -0.000229565 -3.19208e-05 2.44613
0.145 0.01 -0.0120858 -0.000197427 -3.08583e-05 2.37165
0.15 0.01 -0.0117448 -0.000169064 -2.99463e-05 2.30755
0.155 0.01 -0.0114533 -0.000143939 -2.91675e-05 2.25266
0.16 0.01 -0.0112058 -0.000121604 -2.85068e-05 2.206
0.165 0.01 -0.0109976 -0.000101685 -2.79513e-05 2.1667
0.17 0.01 -0.0108246 -8.38656e-05 -2.74898e-05 2.13401
0.175 0.01 -0.0106831 -6.78793e-05 -2.71125e-05 2.10726
0.18 0.01 -0.01057 -5.35002e-05 -2.68109e-05 2.08585
0.185 0.01 -0.0104825 -4.05363e-05 -2.65774e-05 2.06929
0.19 0.01 -0.0104182 -2.88237e-05 -2.64054e-05 2.05709
0.195 0.01 -0.0103749 -1.82222e-05 -2.6289e-05 2.04885
0.2 0.01 -0.0103505 -8.61171e-06 -2.62231e-05 2.0442
0.205 0.01 -0.0103434 1.10958e-07 -2.62028e-05 2.04281
0.21 0.01 -0.010352 8.03464e-06 -2.62241e-05 2.04438
0.215 0.01 -0.0103748 1.52359e-05 -2.62831e-05 2.04863
0.22 0.01 -0.0104105 2.17809e-05 -2.63764e-05 2.05532
0.225 0.01 -0.0104579 2.77266e-05 -2.65009e-05 2.06423
0.23 0.01 -0.010516 3.31227e-05 -2.66536e-05 2.07513
0.235 0.01 -0.0105837 3.80119e-05 -2.68321e-05 2.08785
0.24 0.01 -0.0106601 4.24314e-05 -2.70337e-05 2.1022
0.245 0.01 -0.0107444 4.64133e-05 -2.72564e-05 2.11801
0.25 0.01 -0.0108357 4.99857e-05 -2.74979e-05 2.13514
0.255 0.01 -0.0109333 5.31729e-05 -2.77562e-05 2.15342
0.26 0.01 -0.0110364 5.59961e-05 -2.80296e-05 2.17273
0.265 0.01 -0.0111444 5.84738e-05 -2.83162e-05 2.19293
0.27 0.01 -0.0112566 6.06221e-05 -2.86144e-05 2.21391
0.275 0.01 -0.0113725 6.24552e-05 -2.89225e-05 2.23553
0.28 0.01 -0.0114913 6.39856e-05 -2.9239e-05 2.25769
0.285 0.01 -0.0116126 6.52243e-05 -2.95624e-05 2.28027
0.29 0.01 -0.0117358 6.61811e-05 -2.98913e-05 2.30317
0.295 0.01 -0.0118603 6.68648e-05 -3.02243e-05 2.32629
0.3 0.01 -0.0119857 6.72834e-05 -3.056e-05 2.34954
0.305 0.01 -0.0121114 6.74441e-05 -3.08972e-05 2.3728
0.31 0.01 -0.012237 6.73537e-05 -3.12346e-05 2.396
0.315 0.01 -0.012362 6.70185e-05 -3.15709e-05 2.41904
0.32 0.01 -0.0124859 6.64446e-05 -3.19049e-05 2.44184
0.325 0.01 -0.0126083 6.56377e-05 -3.22355e-05 2.46431
0.33 0.01 -0.0127288 6.46035e-05 -3.25614e-05 2.48637
0.335 0.01 -0.0128468 6.33477e-05 -3.28817e-05 2.50793
0.34 0.01 -0.0129621 6.18759e-05 -3.31951e-05 2.52893
0.345 0.01 -0.0130742 6.01939e-05 -3.35006e-05 2.54928
0.35 0.01 -0.0131827 5.83075e-05 -3.37972e-05 2.56892
0.355 0.01 -0.0132873 5.62229e-05 -3.40839e-05 2.58778
0.36 0.01 -0.0133875 5.39461e-05 -3.43597e-05 2.60578
0.365 0.01 -0.0134831 5.14837e-05 -3.46236e-05 2.62286
0.37 0.01 -0.0135737 4.88425e-05 -3.48748e-05 2.63896
0.375 0.01 -0.013659 4.60295e-05 -3.51123e-05 2.65403
0.38 0.01 -0.0137386 4.3052e-05 -3.53353e-05 2.668
0.385 0.01 -0.0138122 3.99177e-05 -3.55431e-05 2.68082
0.39 0.01 -0.0138797 3.66345e-05 -3.57348e-05 2.69244
0.395 0.01 -0.0139407 3.32106e-05 -3.59097e-05 2.70281
0.4 0.01 -0.013995 2.96547e-05 -3.60672e-05 2.7119
0.405 0.01 -0.0140423 2.59755e-05 -3.62066e-05 2.71965
0.41 0.01 -0.0140824 2.21823e-05 -3.63272e-05 2.72603
0.415 0.01 -0.0141152 1.82845e-05 -3.64287e-05 2.73102
0.42 0.01 -0.0141405 1.42916e-05 -3.65104e-05 2.73456
0.425 0.01 -0.014158 1.02137e-05 -3.6572e-05 2.73665
0.43 0.01 -0.0141678 6.06085e-06 -3.66129e-05 2.73725
0.435 0.01 -0.0141695 1.8433e-06 -3.66329e-05 2.73634
0.44 0.01 -0.0141633 -2.42851e-06 -3.66317e-05 2.73392
0.445 0.01 -0.0141488 -6.744e-06 -3.6609e-05 2.72996
0.45 0.01 -0.0141262 -1.10925e-05 -3.65646e-05 2.72447
0.455 0.01 -0.0140954 -1.54634e-05 -3.64984e-05 2.71742
0.46 0.01 -0.0140563 -1.9846e-05 -3.64103e-05 2.70883
0.465 0.01 -0.0140089 -2.42295e-05 -3.63003e-05 2.69868
0.47 0.01 -0.0139533 -2.86033e-05 -3.61684e-05 2.687
0.475 0.01 -0.0138895 -3.29569e-05 -3.60147e-05 2.67379
0.48 0.01 -0.0138176 -3.72799e-05 -3.58392e-05 2.65906
0.485 0.01 -0.0137376 -4.1562e-05 -3.56423e-05 2.64283
0.49 0.01 -0.0136496 -4.57933e-05 -3.5424e-05 2.62511
0.495 0.01 -0.0135538 -4.99639e-05 -3.51847e-05 2.60594
0.5 0.01 -0.0134503 -5.40644e-05 -3.49247e-05 2.58533
0.505 0.01 -0.0133391 -5.80855e-05 -3.46445e-05 2.56331
0.51 0.01 -0.0132206 -6.20185e-05 -3.43443e-05 2.53993
0.515 0.01 -0.0130948 -6.58549e-05 -3.40246e-05 2.5152
0.52 0.01 -0.012962 -6.95866e-05 -3.36861e-05 2.48918
0.525 0.01 -0.0128223 -7.32061e-05 -3.33292e-05 2.46189
0.53 0.01 -0.012676 -7.6706e-05 -3.29544e-05 2.43339
0.535 0.01 -0.0125234 -8.00799e-05 -3.25625e-05 2.40372
0.54 0.01 -0.0123646 -8.33215e-05 -3.2154e-05 2.37291
0.545 0.01 -0.0122 -8.64251e-05 -3.17296e-05 2.34103
0.55 0.01 -0.0120297 -8.93857e-05 -3.12901e-05 2.30812
0.555 0.01 -0.0118541 -9.21986e-05 -3.08361e-05 2.27422
0.56 0.01 -0.0116735 -9.48599e-05 -3.03684e-05 2.23941
0.565 0.01 -0.0114881 -9.7366e-05 -2.98878e-05 2.20372
0.57 0.01 -0.0112982 -9.9714e-05 -2.93951e-05 2.16722
0.575 0.01 -0.0111041 -0.000101902 -2.8891e-05 2.12995
0.58 0.01 -0.0109062 -0.000103927 -2.83764e-05 2.09198
0.585 0.01 -0.0107047 -0.000105789 -2.78521e-05 2.05336
0.59 0.01 -0.0104999 -0.000107487 -2.73188e-05 2.01414
0.595 0.01 -0.0102922 -0.00010902 -2.67775e-05 1.97439
0.6 0.01 -0.0100818 -0.00011039 -2.62289e-05 1.93416
0.605 0.01 -0.00986909 -0.000111596 -2.56739e-05 1.89351
0.61 0.01 -0.00965433 -0.00011264 -2.51132e-05 1.85249
0.615 0.01 -0.00943782 -0.000113524 -2.45478e-05 1.81116
0.62 0.01 -0.00921987 -0.00011425 -2.39782e-05 1.76957
0.625 0.01 -0.00900075 -0.00011482 -2.34055e-05 1.72777
0.63 0.01 -0.00878077 -0.000115238 -2.28303e-05 1.68582
0.635 0.01 -0.00856019 -0.000115507 -2.22533e-05 1.64377
0.64 0.01 -0.00833929 -0.000115631 -2.16754e-05 1.60168
0.645 0.01 -0.00811833 -0.000115612 -2.10973e-05 1.55958
0.65 0.01 -0.00789758 -0.000115457 -2.05195e-05 1.51752
0.655 0.01 -0.00767729 -0.000115168 -1.99429e-05 1.47556
0.66 0.01 -0.0074577 -0.000114751 -1.9368e-05 1.43374
0.665 0.01 -0.00723904 -0.00011421 -1.87956e-05 1.3921
0.67 0.01 -0.00702154 -0.000113551 -1.82261e-05 1.35068
0.675 0.01 -0.0068054 -0.000112778 -1.76602e-05 1.30952
0.68 0.01 -0.00659085 -0.000111896 -1.70985e-05 1.26866
0.685 0.01 -0.00637808 -0.000110912 -1.65414e-05 1.22813
0.69 0.01 -0.00616726 -0.000109829 -1.59895e-05 1.18798
0.695 0.01 -0.00595858 -0.000108654 -1.54432e-05 1.14822
0.7 0.01 -0.00575222 -0.000107391 -1.49031e-05 1.10891
0.705 0.01 -0.00554831 -0.000106046 -1.43694e-05 1.07005
0.71 0.01 -0.00534703 -0.000104624 -1.38427e-05 1.03169
0.715 0.01 -0.00514849 -0.000103129 -1.33233e-05 0.993843
0.72 0.01 -0.00495284 -0.000101567 -1.28115e-05 0.956538
0.725 0.01 -0.0047602 -9.99431e-05 -1.23077e-05 0.919797
0.73 0.01 -0.00457067 -9.82611e-05 -1.18122e-05 0.883641
0.735 0.01 -0.00438437 -9.65259e-05 -1.13252e-05 0.84809
0.74 0.01 -0.00420139 -9.47418e-05 -1.0847e-05 0.813162
0.745 0.01 -0.00402181 -9.29131e-05 -1.03778e-05 0.778873
0.75 0.01 -0.00384573 -9.10437e-05 -9.91789e-06 0.745238
0.755 0.01 -0.0036732 -8.91377e-05 -9.46742e-06 0.712273
0.76 0.01 -0.0035043 -8.71985e-05 -9.02656e-06 0.679988
0.765 0.01 -0.00333909 -8.52298e-05 -8.59547e-06 0.648397
0.77 0.01 -0.00317762 -8.32348e-05 -8.1743e-06 0.617509
0.775 0.01 -0.00301995 -8.12165e-05 -7.76316e-06 0.587333
0.78 0.01 -0.0028661 -7.91779e-05 -7.36216e-06 0.557878
0.785 0.01 -0.00271613 -7.71216e-05 -6.9714e-06 0.529152
0.79 0.01 -0.00257005 -7.50503e-05 -6.59096e-06 0.501161
0.795 0.01 -0.00242791 -7.29661e-05 -6.22092e-06 0.47391
0.8 0.01 -0.00228972 -7.08713e-05 -5.86132e-06 0.447405
0.805 0.01 -0.00215551 -6.87678e-05 -5.51221e-06 0.421649
0.81 0.01 -0.00202529 -6.66573e-05 -5.17365e-06 0.396647
0.815 0.01 -0.00189907 -6.45416e-05 -4.84565e-06 0.372401
0.82 0.01 -0.00177687 -6.2422e-05 -4.52823e-06 0.348915
0.825 0.01 -0.0016587 -6.02998e-05 -4.22143e-06 0.326189
0.83 0.01 -0.00154455 -5.81762e-05 -3.92523e-06 0.304226
0.835 0.01 -0.00143444 -5.60523e-05 -3.63966e-06 0.283027
0.84 0.01 -0.00132836 -5.39287e-05 -3.36471e-06 0.262593
0.845 0.01 -0.00122632 -5.18063e-05 -3.10037e-06 0.242925
0.85 0.01 -0.00112832 -4.96857e-05 -2.84664e-06 0.224022
0.855 0.01 -0.00103436 -4.75674e-05 -2.60351e-06 0.205885
0.86 0.01 -0.00094442 -4.54516e-05 -2.37096e-06 0.188514
0.865 0.01 -0.000858514 -4.33386e-05 -2.14898e-06 0.171909
0.87 0.01 -0.000776634 -4.12286e-05 -1.93756e-06 0.15607
0.875 0.01 -0.000698775 -3.91216e-05 -1.73669e-06 0.140996
0.88 0.01 -0.000624933 -3.70175e-05 -1.54634e-06 0.126687
0.885 0.01 -0.000555105 -3.49162e-05 -1.3665e-06 0.113141
0.89 0.01 -0.000489285 -3.28174e-05 -1.19717e-06 0.10036
0.895 0.01 -0.000427471 -3.0721e-05 -1.03832e-06 0.0883417
0.9 0.01 -0.000369658 -2.86265e-05 -8.89949e-07 0.0770857
0.905 0.01 -0.000315842 -2.65337e-05 -7.52046e-07 0.0665912
0.91 0.01 -0.000266019 -2.44423e-05 -6.24603e-07 0.0568573
0.915 0.01 -0.000220185 -2.23521e-05 -5.07615e-07 0.0478827
0.92 0.01 -0.000178336 -2.02631e-05 -4.01075e-07 0.0396658
0.925 0.01 -0.000140464 -1.81758e-05 -3.04977e-07 0.0322045
0.93 0.01 -0.00010656 -1.60908e-05 -2.19311e-07 0.0254958
0.935 0.01 -7.6613e-05 -1.40099e-05 -1.44063e-07 0.0195356
0.94 0.01 -5.06029e-05 -1.19357e-05 -7.92074e-08 0.0143184
0.945 0.01 -2.85028e-05 -9.87262e-06 -2.47017e-08 0.00983606
0.95 0.01 -1.02725e-05 -7.82748e-06 1.95227e-08 0.00607751
0.955 0.01 4.14675e-06 -5.81076e-06 5.35763e-08 0.00302715
0.96 0.01 1.4841e-05 -3.83838e-06 7.76328e-08 0.00066322
0.965 0.01 2.19351e-05 -1.93453e-06 9.19621e-08 -0.0010447
0.97 0.01 2.56106e-05 -1.36064e-07 9.69796e-08 -0.00213901
0.975 0.01 2.61302e-05 1.50026e-06 9.33237e-08 -0.00267863
0.98 0.01 2.38746e-05 2.88622e-06 8.19775e-08 -0.0027449
0.985 0.01 1.93939e-05 3.88401e-06 6.44618e-08 -0.0024483
0.99 0.01 1.34776e-05 4.28273e-06 4.31375e-08 -0.00193292
0.995 0.01 7.23695e-06 3.79081e-06 2.16344e-08 -0.00136795
1 0.01 2.15945e-06 2.16344e-06 5.22927e-09 -0.00089248
0 0.015 0 0 -0.00172756 0
0.005 0.015 0 0 0 -256.024
0.01 0.015 -0.152673 0.184546 -0.0017997 -79.3383
0.015 0.015 -0.20575 -0.0241669 -0.00184546 -16.6656
0.02 0.015 -0.203856 -0.057691 -0.00155803 2.37856
0.025 0.015 -0.183847 -0.0522347 -0.00126855 8.05882
0.03 0.015 -0.160665 -0.0411715 -0.00103568 9.42659
0.035 0.015 -0.139286 -0.0316136 -0.000856836 9.32808
0.04 0.015 -0.120929 -0.0244113 -0.000719545 8.74255
0.045 0.015 -0.105544 -0.0191323 -0.000612724 8.02835
0.05 0.015 -0.0927252 -0.0152408 -0.000528222 7.31932
0.055 0.015 -0.0820291 -0.0123239 -0.000460315 6.66329
0.06 0.015 -0.0730636 -0.0100948 -0.000404983 6.07411
0.065 0.015 -0.0655083 -0.00835966 -0.000359366 5.55212
0.07 0.015 -0.0591067 -0.00698644 -0.000321386 5.09258
0.075 0.015 -0.0536551 -0.00588387 -0.000289501 4.68911
0.08 0.015 -0.0489913 -0.0049875 -0.000262547 4.33524
0.085 0.015 -0.0449853 -0.00425083 -0.000239626 4.02488
0.09 0.015 -0.0415323 -0.00363966 -0.000220038 3.75259
0.095 0.015 -0.038547 -0.00312835 -0.000203229 3.5136
0.1 0.015 -0.0359596 -0.00269738 -0.000188754 3.30374
0.105 0.015 -0.0337127 -0.00233166 -0.000176254 3.11941
0.11 0.015 -0.0317585 -0.0020194 -0.000165436 2.95749
0.115 0.015 -0.0300571 -0.00175126 -0.000156059 2.81529
0.12 0.015 -0.0285753 -0.00151979 -0.000147923 2.69049
0.125 0.015 -0.0272847 -0.001319 -0.000140861 2.58107
0.13 0.015 -0.0261616 -0.00114401 -0.000134732 2.48528
0.135 0.015 -0.0251856 -0.000990853 -0.00012942 2.40161
0.14 0.015 -0.0243393 -0.000856247 -0.000124823 2.32874
0.145 0.015 -0.0236077 -0.000737494 -0.000120857 2.2655
0.15 0.015 -0.022978 -0.000632345 -0.000117448 2.21089
0.155 0.015 -0.0224391 -0.000538925 -0.000114533 2.16401
0.16 0.015 -0.0219811 -0.000455659 -0.000112058 2.12409
0.165 0.015 -0.0215958 -0.000381221 -0.000109976 2.09043
0.17 0.015 -0.0212756 -0.000314491 -0.000108245 2.06243
0.175 0.015 -0.0210139 -0.000254517 -0.00010683 2.03953
0.18 0.015 -0.0208052 -0.00020049 -0.0001057 2.02125
0.185 0.015 -0.0206442 -0.000151718 -0.000104825 2.00716
0.19 0.015 -0.0205265 -0.000107608 -0.000104182 1.99686
0.195 0.015 -0.0204479 -6.76536e-05 -0.000103749 1.99002
0.2 0.015 -0.0204049 -3.14166e-05 -0.000103505 1.9863
0.205 0.015 -0.0203942 1.47945e-06 -0.000103434 1.98543
0.21 0.015 -0.0204127 3.13599e-05 -0.00010352 1.98714
0.215 0.015 -0.0204579 5.85062e-05 -0.000103747 1.9912
0.22 0.015 -0.0205273 8.3162e-05 -0.000104105 1.99738
0.225 0.015 -0.0206187 0.000105539 -0.000104579 2.00548
0.23 0.015 -0.0207299 0.000125819 -0.00010516 2.01531
0.235 0.015 -0.0208591 0.000144164 -0.000105837 2.02671
0.24 0.015 -0.0210044 0.000160711 -0.000106601 2.03951
0.245 0.015 -0.0211644 0.000175581 -0.000107444 2.05355
0.25 0.015 -0.0213374 0.00018888 -0.000108357 2.06871
0.255 0.015 -0.0215219 0.000200699 -0.000109333 2.08484
0.26 0.015 -0.0217166 0.00021112 -0.000110364 2.10181
0.265 0.015 -0.0219202 0.000220212 -0.000111444 2.11952
0.27 0.015 -0.0221314 0.000228038 -0.000112567 2.13783
0.275 0.015 -0.0223491 0.000234652 -0.000113725 2.15665
0.28 0.015 -0.0225721 0.000240103 -0.000114913 2.17587
0.285 0.015 -0.0227994 0.000244435 -0.000116126 2.1954
0.29 0.015 -0.0230298 0.000247685 -0.000117358 2.21512
0.295 0.015 -0.0232624 0.00024989 -0.000118603 2.23496
0.3 0.015 -0.0234962 0.00025108 -0.000119857 2.25481
0.305 0.015 -0.0237302 0.000251285 -0.000121115 2.27461
0.31 0.015 -0.0239635 0.000250534 -0.000122371 2.29425
0.315 0.015 -0.0241952 0.00024885 -0.000123621 2.31367
0.32 0.015 -0.0244245 0.000246261 -0.00012486 2.33279
0.325 0.015 -0.0246504 0.000242788 -0.000126084 2.35152
0.33 0.015 -0.0248723 0.000238457 -0.000127288 2.3698
0.335 0.015 -0.0250892 0.000233289 -0.000128469 2.38756
0.34 0.015 -0.0253004 0.000227309 -0.000129622 2.40473
0.345 0.015 -0.0255052 0.000220541 -0.000130743 2.42124
0.35 0.015 -0.0257028 0.000213008 -0.000131828 2.43704
0.355 0.015 -0.0258925 0.000204735 -0.000132874 2.45206
0.36 0.015 -0.0260737 0.000195747 -0.000133876 2.46625
0.365 0.015 -0.0262456 0.000186071 -0.000134832 2.47955
0.37 0.015 -0.0264078 0.000175734 -0.000135738 2.49191
0.375 0.015 -0.0265595 0.000164764 -0.000136591 2.50328
0.38 0.015 -0.0267003 0.000153189 -0.000137387 2.51362
0.385 0.015 -0.0268295 0.000141041 -0.000138123 2.52288
0.39 0.015 -0.0269468 0.00012835 -0.000138798 2.53102
0.395 0.015 -0.0270515 0.000115149 -0.000139408 2.53801
0.4 0.015 -0.0271433 0.000101471 -0.000139951 2.54381
0.405 0.015 -0.0272217 8.73507e-05 -0.000140424 2.54839
0.41 0.015 -0.0272864 7.28225e-05 -0.000140826 2.55172
0.415 0.015 -0.027337 5.79229e-05 -0.000141153 2.55377
0.42 0.015 -0.0273732 4.2689e-05 -0.000141406 2.55454
0.425 0.015 -0.0273948 2.71583e-05 -0.000141582 2.55398
0.43 0.015 -0.0274015 1.13691e-05 -0.000141679 2.5521
0.435 0.015 -0.0273931 -4.63972e-06 -0.000141697 2.54887
0.44 0.015 -0.0273694 -2.08289e-05 -0.000141634 2.5443
0.445 0.015 -0.0273303 -3.7159e-05 -0.00014149 2.53836
0.45 0.015 -0.0272758 -5.35901e-05 -0.000141264 2.53107
0.455 0.015 -0.0272058 -7.00824e-05 -0.000140955 2.52242
0.46 0.015 -0.0271201 -8.65962e-05 -0.000140564 2.5124
0.465 0.015 -0.027019 -0.000103092 -0.000140091 2.50104
0.47 0.015 -0.0269024 -0.00011953 -0.000139535 2.48834
0.475 0.015 -0.0267705 -0.000135873 -0.000138897 2.47431
0.48 0.015 -0.0266233 -0.000152081 -0.000138178 2.45897
0.485 0.015 -0.026461 -0.000168117 -0.000137378 2.44234
0.49 0.015 -0.0262838 -0.000183945 -0.000136498 2.42442
0.495 0.015 -0.0260919 -0.000199529 -0.00013554 2.40526
0.5 0.015 -0.0258857 -0.000214834 -0.000134504 2.38487
0.505 0.015 -0.0256654 -0.000229828 -0.000133393 2.36329
0.51 0.015 -0.0254313 -0.000244478 -0.000132207 2.34054
0.515 0.015 -0.0251837 -0.000258754 -0.000130949 2.31665
0.52 0.015 -0.0249231 -0.000272627 -0.000129621 2.29167
0.525 0.015 -0.0246498 -0.000286069 -0.000128225 2.26562
0.53 0.015 -0.0243643 -0.000299056 -0.000126762 2.23855
0.535 0.015 -0.024067 -0.000311562 -0.000125235 2.21049
0.54 0.015 -0.0237584 -0.000323567 -0.000123648 2.18149
0.545 0.015 -0.023439 -0.000335051 -0.000122001 2.15158
0.55 0.015 -0.0231092 -0.000345994 -0.000120299 2.12083
0.555 0.015 -0.0227696 -0.000356382 -0.000118543 2.08925
0.56 0.015 -0.0224207 -0.000366199 -0.000116736 2.05692
0.565 0.015 -0.022063 -0.000375435 -0.000114882 2.02386
0.57 0.015 -0.0216971 -0.000384079 -0.000112983 1.99013
0.575 0.015 -0.0213236 -0.000392123 -0.000111042 1.95578
0.58 0.015 -0.0209431 -0.000399561 -0.000109063 1.92084
0.585 0.015 -0.020556 -0.000406389 -0.000107048 1.88538
0.59 0.015 -0.0201629 -0.000412605 -0.000105 1.84944
0.595 0.015 -0.0197645 -0.00041821 -0.000102923 1.81307
0.6 0.015 -0.0193613 -0.000423204 -0.000100819 1.77631
0.605 0.015 -0.0189538 -0.000427591 -9.8692e-05 1.73922
0.61 0.015 -0.0185426 -0.000431377 -9.65444e-05 1.70183
0.615 0.015 -0.0181283 -0.000434568 -9.43793e-05 1.6642
0.62 0.015 -0.0177114 -0.000437173 -9.21997e-05 1.62638
0.625 0.015 -0.0172925 -0.0004392 -9.00085e-05 1.5884
0.63 0.015 -0.0168721 -0.000440663 -8.78086e-05 1.55031
0.635 0.015 -0.0164506 -0.000441572 -8.56027e-05 1.51216
0.64 0.015 -0.0160287 -0.000441941 -8.33937e-05 1.47398
0.645 0.015 -0.0156068 -0.000441785 -8.11841e-05 1.43583
0.65 0.015 -0.0151853 -0.00044112 -7.89766e-05 1.39773
0.655 0.015 -0.0147648 -0.000439962 -7.67737e-05 1.35973
0.66 0.015 -0.0143457 -0.000438328 -7.45777e-05 1.32186
0.665 0.015 -0.0139284 -0.000436235 -7.23911e-05 1.28416
0.67 0.015 -0.0135133 -0.000433703 -7.0216e-05 1.24667
0.675 0.015 -0.0131009 -0.000430748 -6.80547e-05 1.20941
0.68 0.015 -0.0126915 -0.000427391 -6.59091e-05 1.17243
0.685 0.015 -0.0122854 -0.000423651 -6.37813e-05 1.13575
0.69 0.015 -0.0118831 -0.000419546 -6.16731e-05 1.0994
0.695 0.015 -0.0114849 -0.000415096 -5.95863e-05 1.06341
0.7 0.015 -0.011091 -0.00041032 -5.75226e-05 1.0278
0.705 0.015 -0.0107018 -0.000405237 -5.54836e-05 0.992607
0.71 0.015 -0.0103175 -0.000399866 -5.34707e-05 0.957843
0.715 0.015 -0.00993837 -0.000394224 -5.14853e-05 0.923535
0.72 0.015 -0.00956472 -0.000388331 -4.95288e-05 0.889704
0.725 0.015 -0.00919674 -0.000382204 -4.76023e-05 0.856369
0.73 0.015 -0.00883464 -0.00037586 -4.5707e-05 0.823549
0.735 0.015 -0.00847861 -0.000369316 -4.3844e-05 0.79126
0.74 0.015 -0.00812883 -0.000362587 -4.20141e-05 0.759518
0.745 0.015 -0.00778548 -0.000355689 -4.02184e-05 0.728338
0.75 0.015 -0.0074487 -0.000348637 -3.84575e-05 0.697733
0.755 0.015 -0.00711863 -0.000341445 -3.67322e-05 0.667717
0.76 0.015 -0.00679539 -0.000334127 -3.50432e-05 0.6383
0.765 0.015 -0.00647912 -0.000326695 -3.33911e-05 0.609493
0.77 0.015 -0.0061699 -0.000319161 -3.17764e-05 0.581305
0.775 0.015 -0.00586782 -0.000311537 -3.01996e-05 0.553746
0.78 0.015 -0.00557298 -0.000303833 -2.86611e-05 0.526823
0.785 0.015 -0.00528545 -0.000296059 -2.71614e-05 0.500543
0.79 0.015 -0.00500528 -0.000288224 -2.57006e-05 0.474913
0.795 0.015 -0.00473254 -0.000280338 -2.42792e-05 0.449938
0.8 0.015 -0.00446728 -0.000272407 -2.28973e-05 0.425623
0.805 0.015 -0.00420953 -0.00026444 -2.15551e-05 0.401974
0.81 0.015 -0.00395933 -0.000256442 -2.02529e-05 0.378993
0.815 0.015 -0.00371672 -0.00024842 -1.89907e-05 0.356685
0.82 0.015 -0.00348171 -0.000240379 -1.77687e-05 0.335052