Title=" Lid Driven Flow"
VARIABLES="X","Y","U","V","psi","xi"
ZONE T= "BOX", I= 201, J=201, F=POINT
0 0 0 0 0.00334104 0
0.005 0 0 0 0 0
0.01 0 0 0 0 0
0.015 0 0 0 0 161.891
0.02 0 0 0 0 176.122
0.025 0 0 0 0 155.599
0.03 0 0 0 0 133.206
0.035 0 0 0 0 115.682
0.04 0 0 0 0 102.826
0.045 0 0 0 0 93.2909
0.05 0 0 0 0 85.9682
0.055 0 0 0 0 80.1244
0.06 0 0 0 0 75.3012
0.065 0 0 0 0 71.2095
0.07 0 0 0 0 67.6616
0.075 0 0 0 0 64.531
0.08 0 0 0 0 61.7293
0.085 0 0 0 0 59.1928
0.09 0 0 0 0 56.8749
0.095 0 0 0 0 54.7402
0.1 0 0 0 0 52.7618
0.105 0 0 0 0 50.9186
0.11 0 0 0 0 49.1939
0.115 0 0 0 0 47.5744
0.12 0 0 0 0 46.0491
0.125 0 0 0 0 44.6089
0.13 0 0 0 0 43.2462
0.135 0 0 0 0 41.9546
0.14 0 0 0 0 40.7284
0.145 0 0 0 0 39.5626
0.15 0 0 0 0 38.453
0.155 0 0 0 0 37.3956
0.16 0 0 0 0 36.387
0.165 0 0 0 0 35.4238
0.17 0 0 0 0 34.5033
0.175 0 0 0 0 33.6225
0.18 0 0 0 0 32.7791
0.185 0 0 0 0 31.9706
0.19 0 0 0 0 31.1948
0.195 0 0 0 0 30.4497
0.2 0 0 0 0 29.7332
0.205 0 0 0 0 29.0436
0.21 0 0 0 0 28.3792
0.215 0 0 0 0 27.7381
0.22 0 0 0 0 27.1191
0.225 0 0 0 0 26.5204
0.23 0 0 0 0 25.9409
0.235 0 0 0 0 25.3791
0.24 0 0 0 0 24.8338
0.245 0 0 0 0 24.3039
0.25 0 0 0 0 23.7882
0.255 0 0 0 0 23.2858
0.26 0 0 0 0 22.7956
0.265 0 0 0 0 22.3167
0.27 0 0 0 0 21.8483
0.275 0 0 0 0 21.3896
0.28 0 0 0 0 20.9398
0.285 0 0 0 0 20.4982
0.29 0 0 0 0 20.0641
0.295 0 0 0 0 19.637
0.3 0 0 0 0 19.2163
0.305 0 0 0 0 18.8013
0.31 0 0 0 0 18.3918
0.315 0 0 0 0 17.9871
0.32 0 0 0 0 17.587
0.325 0 0 0 0 17.1911
0.33 0 0 0 0 16.7989
0.335 0 0 0 0 16.4103
0.34 0 0 0 0 16.0249
0.345 0 0 0 0 15.6426
0.35 0 0 0 0 15.263
0.355 0 0 0 0 14.8862
0.36 0 0 0 0 14.5119
0.365 0 0 0 0 14.14
0.37 0 0 0 0 13.7704
0.375 0 0 0 0 13.403
0.38 0 0 0 0 13.038
0.385 0 0 0 0 12.6751
0.39 0 0 0 0 12.3145
0.395 0 0 0 0 11.9561
0.4 0 0 0 0 11.6001
0.405 0 0 0 0 11.2465
0.41 0 0 0 0 10.8954
0.415 0 0 0 0 10.5468
0.42 0 0 0 0 10.2011
0.425 0 0 0 0 9.85814
0.43 0 0 0 0 9.51825
0.435 0 0 0 0 9.18156
0.44 0 0 0 0 8.84825
0.445 0 0 0 0 8.51849
0.45 0 0 0 0 8.19248
0.455 0 0 0 0 7.87042
0.46 0 0 0 0 7.55253
0.465 0 0 0 0 7.239
0.47 0 0 0 0 6.93006
0.475 0 0 0 0 6.6259
0.48 0 0 0 0 6.32675
0.485 0 0 0 0 6.03281
0.49 0 0 0 0 5.74428
0.495 0 0 0 0 5.46137
0.5 0 0 0 0 5.18427
0.505 0 0 0 0 4.91315
0.51 0 0 0 0 4.6482
0.515 0 0 0 0 4.38957
0.52 0 0 0 0 4.13743
0.525 0 0 0 0 3.89191
0.53 0 0 0 0 3.65314
0.535 0 0 0 0 3.42122
0.54 0 0 0 0 3.19627
0.545 0 0 0 0 2.97835
0.55 0 0 0 0 2.76753
0.555 0 0 0 0 2.56387
0.56 0 0 0 0 2.36739
0.565 0 0 0 0 2.17811
0.57 0 0 0 0 1.99604
0.575 0 0 0 0 1.82114
0.58 0 0 0 0 1.6534
0.585 0 0 0 0 1.49276
0.59 0 0 0 0 1.33915
0.595 0 0 0 0 1.1925
0.6 0 0 0 0 1.05272
0.605 0 0 0 0 0.919702
0.61 0 0 0 0 0.793324
0.615 0 0 0 0 0.67346
0.62 0 0 0 0 0.559968
0.625 0 0 0 0 0.452701
0.63 0 0 0 0 0.351499
0.635 0 0 0 0 0.256198
0.64 0 0 0 0 0.166624
0.645 0 0 0 0 0.0826013
0.65 0 0 0 0 0.00394628
0.655 0 0 0 0 -0.0695269
0.66 0 0 0 0 -0.138007
0.665 0 0 0 0 -0.201687
0.67 0 0 0 0 -0.260758
0.675 0 0 0 0 -0.315414
0.68 0 0 0 0 -0.365851
0.685 0 0 0 0 -0.412262
0.69 0 0 0 0 -0.454841
0.695 0 0 0 0 -0.493782
0.7 0 0 0 0 -0.529276
0.705 0 0 0 0 -0.561516
0.71 0 0 0 0 -0.59069
0.715 0 0 0 0 -0.616987
0.72 0 0 0 0 -0.640591
0.725 0 0 0 0 -0.661687
0.73 0 0 0 0 -0.680453
0.735 0 0 0 0 -0.697064
0.74 0 0 0 0 -0.711693
0.745 0 0 0 0 -0.724502
0.75 0 0 0 0 -0.73565
0.755 0 0 0 0 -0.745286
0.76 0 0 0 0 -0.753549
0.765 0 0 0 0 -0.760569
0.77 0 0 0 0 -0.766461
0.775 0 0 0 0 -0.771328
0.78 0 0 0 0 -0.775257
0.785 0 0 0 0 -0.778321
0.79 0 0 0 0 -0.780575
0.795 0 0 0 0 -0.782055
0.8 0 0 0 0 -0.782783
0.805 0 0 0 0 -0.78276
0.81 0 0 0 0 -0.78197
0.815 0 0 0 0 -0.780381
0.82 0 0 0 0 -0.777946
0.825 0 0 0 0 -0.7746
0.83 0 0 0 0 -0.770269
0.835 0 0 0 0 -0.764866
0.84 0 0 0 0 -0.758297
0.845 0 0 0 0 -0.750459
0.85 0 0 0 0 -0.741248
0.855 0 0 0 0 -0.730561
0.86 0 0 0 0 -0.718296
0.865 0 0 0 0 -0.704357
0.87 0 0 0 0 -0.68866
0.875 0 0 0 0 -0.67113
0.88 0 0 0 0 -0.651713
0.885 0 0 0 0 -0.63037
0.89 0 0 0 0 -0.60709
0.895 0 0 0 0 -0.581882
0.9 0 0 0 0 -0.554788
0.905 0 0 0 0 -0.525879
0.91 0 0 0 0 -0.49526
0.915 0 0 0 0 -0.46307
0.92 0 0 0 0 -0.429486
0.925 0 0 0 0 -0.394722
0.93 0 0 0 0 -0.359032
0.935 0 0 0 0 -0.322707
0.94 0 0 0 0 -0.286082
0.945 0 0 0 0 -0.249527
0.95 0 0 0 0 -0.213455
0.955 0 0 0 0 -0.178318
0.96 0 0 0 0 -0.144607
0.965 0 0 0 0 -0.11285
0.97 0 0 0 0 -0.0836163
0.975 0 0 0 0 -0.0575056
0.98 0 0 0 0 -0.0351451
0.985 0 0 0 0 -0.0171676
0.99 0 0 0 0 -0.00416422
0.995 0 0 0 0 0.00342841
1 0 0 0 0 0.00559325
0 0.005 0 0 0 0
0.005 0.005 0 0 0 0
0.01 0.005 0 0 0 73.7282
0.015 0.005 0 0 0 62.072
0.02 0.005 0 0 0 45.7292
0.025 0.005 0 0 0 33.9658
0.03 0.005 0 0 0 26.0677
0.035 0.005 0 0 0 20.6344
0.04 0.005 0 0 0 16.7251
0.045 0.005 0 0 0 13.7895
0.05 0.005 0 0 0 11.5092
0.055 0.005 0 0 0 9.6935
0.06 0.005 0 0 0 8.22235
0.065 0.005 0 0 0 7.01609
0.07 0.005 0 0 0 6.01904
0.075 0.005 0 0 0 5.19052
0.08 0.005 0 0 0 4.49969
0.085 0.005 0 0 0 3.92253
0.09 0.005 0 0 0 3.43988
0.095 0.005 0 0 0 3.03625
0.1 0.005 0 0 0 2.69896
0.105 0.005 0 0 0 2.41754
0.11 0.005 0 0 0 2.18331
0.115 0.005 0 0 0 1.98905
0.12 0.005 0 0 0 1.82872
0.125 0.005 0 0 0 1.69727
0.13 0.005 0 0 0 1.59049
0.135 0.005 0 0 0 1.50483
0.14 0.005 0 0 0 1.43733
0.145 0.005 0 0 0 1.38551
0.15 0.005 0 0 0 1.34729
0.155 0.005 0 0 0 1.32093
0.16 0.005 0 0 0 1.30496
0.165 0.005 0 0 0 1.29818
0.17 0.005 0 0 0 1.29955
0.175 0.005 0 0 0 1.30822
0.18 0.005 0 0 0 1.32348
0.185 0.005 0 0 0 1.34472
0.19 0.005 0 0 0 1.37144
0.195 0.005 0 0 0 1.40323
0.2 0.005 0 0 0 1.43972
0.205 0.005 0 0 0 1.4806
0.21 0.005 0 0 0 1.52563
0.215 0.005 0 0 0 1.57459
0.22 0.005 0 0 0 1.62727
0.225 0.005 0 0 0 1.68352
0.23 0.005 0 0 0 1.74318
0.235 0.005 0 0 0 1.80612
0.24 0.005 0 0 0 1.87222
0.245 0.005 0 0 0 1.94137
0.25 0.005 0 0 0 2.01345
0.255 0.005 0 0 0 2.08835
0.26 0.005 0 0 0 2.16599
0.265 0.005 0 0 0 2.24625
0.27 0.005 0 0 0 2.32904
0.275 0.005 0 0 0 2.41424
0.28 0.005 0 0 0 2.50176
0.285 0.005 0 0 0 2.59149
0.29 0.005 0 0 0 2.6833
0.295 0.005 0 0 0 2.77709
0.3 0.005 0 0 0 2.87273
0.305 0.005 0 0 0 2.9701
0.31 0.005 0 0 0 3.06906
0.315 0.005 0 0 0 3.16948
0.32 0.005 0 0 0 3.27122
0.325 0.005 0 0 0 3.37413
0.33 0.005 0 0 0 3.47805
0.335 0.005 0 0 0 3.58283
0.34 0.005 0 0 0 3.6883
0.345 0.005 0 0 0 3.79429
0.35 0.005 0 0 0 3.90064
0.355 0.005 0 0 0 4.00716
0.36 0.005 0 0 0 4.11366
0.365 0.005 0 0 0 4.21997
0.37 0.005 0 0 0 4.32588
0.375 0.005 0 0 0 4.43121
0.38 0.005 0 0 0 4.53576
0.385 0.005 0 0 0 4.63931
0.39 0.005 0 0 0 4.74167
0.395 0.005 0 0 0 4.84264
0.4 0.005 0 0 0 4.94199
0.405 0.005 0 0 0 5.03953
0.41 0.005 0 0 0 5.13505
0.415 0.005 0 0 0 5.22832
0.42 0.005 0 0 0 5.31915
0.425 0.005 0 0 0 5.40732
0.43 0.005 0 0 0 5.49263
0.435 0.005 0 0 0 5.57486
0.44 0.005 0 0 0 5.65381
0.445 0.005 0 0 0 5.72929
0.45 0.005 0 0 0 5.80109
0.455 0.005 0 0 0 5.86902
0.46 0.005 0 0 0 5.93289
0.465 0.005 0 0 0 5.99252
0.47 0.005 0 0 0 6.04773
0.475 0.005 0 0 0 6.09836
0.48 0.005 0 0 0 6.14422
0.485 0.005 0 0 0 6.18518
0.49 0.005 0 0 0 6.22107
0.495 0.005 0 0 0 6.25177
0.5 0.005 0 0 0 6.27714
0.505 0.005 0 0 0 6.29706
0.51 0.005 0 0 0 6.31143
0.515 0.005 0 0 0 6.32014
0.52 0.005 0 0 0 6.32311
0.525 0.005 0 0 0 6.32027
0.53 0.005 0 0 0 6.31155
0.535 0.005 0 0 0 6.2969
0.54 0.005 0 0 0 6.2763
0.545 0.005 0 0 0 6.24972
0.55 0.005 0 0 0 6.21716
0.555 0.005 0 0 0 6.17862
0.56 0.005 0 0 0 6.13413
0.565 0.005 0 0 0 6.08372
0.57 0.005 0 0 0 6.02746
0.575 0.005 0 0 0 5.96541
0.58 0.005 0 0 0 5.89766
0.585 0.005 0 0 0 5.82431
0.59 0.005 0 0 0 5.74548
0.595 0.005 0 0 0 5.6613
0.6 0.005 0 0 0 5.57192
0.605 0.005 0 0 0 5.47751
0.61 0.005 0 0 0 5.37825
0.615 0.005 0 0 0 5.27433
0.62 0.005 0 0 0 5.16595
0.625 0.005 0 0 0 5.05335
0.63 0.005 0 0 0 4.93675
0.635 0.005 0 0 0 4.81641
0.64 0.005 0 0 0 4.69258
0.645 0.005 0 0 0 4.56554
0.65 0.005 0 0 0 4.43556
0.655 0.005 0 0 0 4.30294
0.66 0.005 0 0 0 4.16798
0.665 0.005 0 0 0 4.03097
0.67 0.005 0 0 0 3.89223
0.675 0.005 0 0 0 3.75207
0.68 0.005 0 0 0 3.61081
0.685 0.005 0 0 0 3.46878
0.69 0.005 0 0 0 3.3263
0.695 0.005 0 0 0 3.18367
0.7 0.005 0 0 0 3.04124
0.705 0.005 0 0 0 2.8993
0.71 0.005 0 0 0 2.75818
0.715 0.005 0 0 0 2.61817
0.72 0.005 0 0 0 2.47959
0.725 0.005 0 0 0 2.34271
0.73 0.005 0 0 0 2.20782
0.735 0.005 0 0 0 2.07519
0.74 0.005 0 0 0 1.94508
0.745 0.005 0 0 0 1.81773
0.75 0.005 0 0 0 1.69338
0.755 0.005 0 0 0 1.57224
0.76 0.005 0 0 0 1.45452
0.765 0.005 0 0 0 1.3404
0.77 0.005 0 0 0 1.23005
0.775 0.005 0 0 0 1.12361
0.78 0.005 0 0 0 1.02124
0.785 0.005 0 0 0 0.923039
0.79 0.005 0 0 0 0.829109
0.795 0.005 0 0 0 0.739532
0.8 0.005 0 0 0 0.654371
0.805 0.005 0 0 0 0.573671
0.81 0.005 0 0 0 0.49746
0.815 0.005 0 0 0 0.42575
0.82 0.005 0 0 0 0.358535
0.825 0.005 0 0 0 0.295795
0.83 0.005 0 0 0 0.237494
0.835 0.005 0 0 0 0.183581
0.84 0.005 0 0 0 0.133992
0.845 0.005 0 0 0 0.0886519
0.85 0.005 0 0 0 0.0474715
0.855 0.005 0 0 0 0.0103523
0.86 0.005 0 0 0 -0.0228142
0.865 0.005 0 0 0 -0.0521455
0.87 0.005 0 0 0 -0.0777668
0.875 0.005 0 0 0 -0.0998101
0.88 0.005 0 0 0 -0.118413
0.885 0.005 0 0 0 -0.13372
0.89 0.005 0 0 0 -0.145878
0.895 0.005 0 0 0 -0.155038
0.9 0.005 0 0 0 -0.161356
0.905 0.005 0 0 0 -0.16499
0.91 0.005 0 0 0 -0.1661
0.915 0.005 0 0 0 -0.164851
0.92 0.005 0 0 0 -0.161411
0.925 0.005 0 0 0 -0.155952
0.93 0.005 0 0 0 -0.148653
0.935 0.005 0 0 0 -0.1397
0.94 0.005 0 0 0 -0.129289
0.945 0.005 0 0 0 -0.11763
0.95 0.005 0 0 0 -0.10495
0.955 0.005 0 0 0 -0.0915004
0.96 0.005 0 0 0 -0.0775614
0.965 0.005 0 0 0 -0.0634523
0.97 0.005 0 0 0 -0.0495411
0.975 0.005 0 0 0 -0.0362575
0.98 0.005 0 0 0 -0.0241059
0.985 0.005 0 0 0 -0.0136741
0.99 0.005 0 0 0 -0.00562387
0.995 0.005 0 0 0 -0.000613204
1 0.005 0 0 0 0.000989268
0 0.01 0 0 0.000989268 0
0.005 0.01 0 0 0 -326.272
0.01 0.01 -0.180046 0.07759 -0.000921602 -44.4021
0.015 0.01 -0.184866 -0.0349987 -0.0007759 9.53099
0.02 0.01 -0.156392 -0.0351328 -0.000571615 19.1174
0.025 0.01 -0.127559 -0.0245769 -0.000424572 18.9905
0.03 0.01 -0.104148 -0.0166642 -0.000325847 16.8236
0.035 0.01 -0.085908 -0.0116784 -0.00025793 14.4908
0.04 0.01 -0.071647 -0.00855609 -0.000209063 12.4206
0.045 0.01 -0.0603228 -0.00651978 -0.000172369 10.6672
0.05 0.01 -0.0511819 -0.00512003 -0.000143865 9.1958
0.055 0.01 -0.0437009 -0.00410861 -0.000121169 7.95917
0.06 0.01 -0.0375139 -0.00334677 -0.000102779 6.91565
0.065 0.01 -0.0323581 -0.00275413 -8.77011e-05 6.03176
0.07 0.01 -0.0280395 -0.00228196 -7.5238e-05 5.28103
0.075 0.01 -0.02441 -0.00189918 -6.48815e-05 4.64234
0.08 0.01 -0.0213536 -0.00158498 -5.62462e-05 4.09858
0.085 0.01 -0.0187775 -0.00132477 -4.90316e-05 3.63571
0.09 0.01 -0.016606 -0.00110785 -4.29985e-05 3.24203
0.095 0.01 -0.0147769 -0.000926152 -3.79531e-05 2.90769
0.1 0.01 -0.0132385 -0.000773388 -3.37369e-05 2.62438
0.105 0.01 -0.0119473 -0.000644554 -3.02192e-05 2.38499
0.11 0.01 -0.010867 -0.000535606 -2.72914e-05 2.18347
0.115 0.01 -0.00996684 -0.000443236 -2.48631e-05 2.01465
0.12 0.01 -0.00922097 -0.000364716 -2.2859e-05 1.87411
0.125 0.01 -0.0086075 -0.000297783 -2.12159e-05 1.75806
0.13 0.01 -0.00810796 -0.000240551 -1.98811e-05 1.66326
0.135 0.01 -0.00770672 -0.000191444 -1.88104e-05 1.58694
0.14 0.01 -0.00739059 -0.000149145 -1.79667e-05 1.52674
0.145 0.01 -0.00714842 -0.000112549 -1.73189e-05 1.48065
0.15 0.01 -0.00697079 -8.07289e-05 -1.68411e-05 1.44695
0.155 0.01 -0.00684975 -5.29089e-05 -1.65116e-05 1.42417
0.16 0.01 -0.00677859 -2.84375e-05 -1.6312e-05 1.41106
0.165 0.01 -0.00675167 -6.76887e-06 -1.62272e-05 1.40657
0.17 0.01 -0.00676421 1.25538e-05 -1.62443e-05 1.40979
0.175 0.01 -0.00681219 2.99127e-05 -1.63527e-05 1.41995
0.18 0.01 -0.00689221 4.56269e-05 -1.65434e-05 1.4364
0.185 0.01 -0.0070014 5.99621e-05 -1.6809e-05 1.45858
0.19 0.01 -0.00713733 7.31394e-05 -1.7143e-05 1.48602
0.195 0.01 -0.00729795 8.53418e-05 -1.75403e-05 1.5183
0.2 0.01 -0.0074815 9.67205e-05 -1.79964e-05 1.55508
0.205 0.01 -0.00768649 0.0001074 -1.85075e-05 1.59606
0.21 0.01 -0.00791163 0.000117481 -1.90704e-05 1.64098
0.215 0.01 -0.0081558 0.000127048 -1.96823e-05 1.6896
0.22 0.01 -0.00841802 0.000136165 -2.03409e-05 1.74172
0.225 0.01 -0.00869743 0.000144888 -2.1044e-05 1.79716
0.23 0.01 -0.00899327 0.000153257 -2.17898e-05 1.85577
0.235 0.01 -0.00930481 0.000161305 -2.25765e-05 1.91738
0.24 0.01 -0.00963142 0.000169056 -2.34028e-05 1.98187
0.245 0.01 -0.00997248 0.000176529 -2.42671e-05 2.04909
0.25 0.01 -0.0103274 0.000183735 -2.51681e-05 2.11894
0.255 0.01 -0.0106957 0.000190682 -2.61044e-05 2.19128
0.26 0.01 -0.0110767 0.000197373 -2.70749e-05 2.266
0.265 0.01 -0.0114699 0.00020381 -2.80782e-05 2.34299
0.27 0.01 -0.0118749 0.000209989 -2.9113e-05 2.42212
0.275 0.01 -0.0122909 0.000215905 -3.0178e-05 2.50329
0.28 0.01 -0.0127176 0.000221553 -3.1272e-05 2.58636
0.285 0.01 -0.0131542 0.000226922 -3.23936e-05 2.67123
0.29 0.01 -0.0136002 0.000232004 -3.35413e-05 2.75777
0.295 0.01 -0.014055 0.000236788 -3.47136e-05 2.84585
0.3 0.01 -0.014518 0.000241262 -3.59091e-05 2.93535
0.305 0.01 -0.0149886 0.000245414 -3.71262e-05 3.02612
0.31 0.01 -0.0154659 0.00024923 -3.83633e-05 3.11804
0.315 0.01 -0.0159495 0.000252698 -3.96186e-05 3.21096
0.32 0.01 -0.0164384 0.000255803 -4.08903e-05 3.30473
0.325 0.01 -0.0169321 0.000258533 -4.21766e-05 3.39922
0.33 0.01 -0.0174297 0.000260873 -4.34756e-05 3.49426
0.335 0.01 -0.0179305 0.000262811 -4.47853e-05 3.5897
0.34 0.01 -0.0184335 0.000264333 -4.61037e-05 3.68538
0.345 0.01 -0.0189382 0.000265426 -4.74287e-05 3.78114
0.35 0.01 -0.0194434 0.000266078 -4.8758e-05 3.87681
0.355 0.01 -0.0199485 0.000266278 -5.00895e-05 3.97222
0.36 0.01 -0.0204524 0.000266013 -5.14208e-05 4.0672
0.365 0.01 -0.0209544 0.000265274 -5.27496e-05 4.16158
0.37 0.01 -0.0214534 0.000264051 -5.40736e-05 4.25517
0.375 0.01 -0.0219485 0.000262335 -5.53902e-05 4.3478
0.38 0.01 -0.0224389 0.000260118 -5.6697e-05 4.4393
0.385 0.01 -0.0229235 0.000257394 -5.79914e-05 4.52947
0.39 0.01 -0.0234013 0.000254155 -5.92709e-05 4.61815
0.395 0.01 -0.0238714 0.000250398 -6.0533e-05 4.70514
0.4 0.01 -0.0243329 0.000246118 -6.1775e-05 4.79026
0.405 0.01 -0.0247847 0.000241314 -6.29942e-05 4.87334
0.41 0.01 -0.0252259 0.000235983 -6.41881e-05 4.9542
0.415 0.01 -0.0256555 0.000230125 -6.53541e-05 5.03265
0.42 0.01 -0.0260725 0.000223743 -6.64895e-05 5.10852
0.425 0.01 -0.026476 0.000216838 -6.75916e-05 5.18163
0.43 0.01 -0.026865 0.000209414 -6.86579e-05 5.25182
0.435 0.01 -0.0272385 0.000201476 -6.96858e-05 5.31891
0.44 0.01 -0.0275958 0.000193032 -7.06727e-05 5.38275
0.445 0.01 -0.0279357 0.00018409 -7.16162e-05 5.44316
0.45 0.01 -0.0282576 0.000174658 -7.25137e-05 5.5
0.455 0.01 -0.0285604 0.000164748 -7.33628e-05 5.55311
0.46 0.01 -0.0288434 0.000154373 -7.41612e-05 5.60234
0.465 0.01 -0.0291058 0.000143546 -7.49066e-05 5.64757
0.47 0.01 -0.0293467 0.000132283 -7.55968e-05 5.68864
0.475 0.01 -0.0295654 0.000120601 -7.62295e-05 5.72544
0.48 0.01 -0.0297613 0.000108519 -7.68028e-05 5.75785
0.485 0.01 -0.0299337 9.6056e-05 -7.73148e-05 5.78575
0.49 0.01 -0.0300818 8.32342e-05 -7.77635e-05 5.80904
0.495 0.01 -0.0302052 7.00764e-05 -7.81472e-05 5.82763
0.5 0.01 -0.0303032 5.66069e-05 -7.84643e-05 5.84143
0.505 0.01 -0.0303755 4.28515e-05 -7.87134e-05 5.85035
0.51 0.01 -0.0304215 2.88376e-05 -7.8893e-05 5.85433
0.515 0.01 -0.0304408 1.45937e-05 -7.90018e-05 5.85332
0.52 0.01 -0.0304332 1.49588e-07 -7.9039e-05 5.84726
0.525 0.01 -0.0303983 -1.44635e-05 -7.90034e-05 5.83612
0.53 0.01 -0.0303359 -2.92131e-05 -7.88945e-05 5.81986
0.535 0.01 -0.0302459 -4.40658e-05 -7.87114e-05 5.79848
0.54 0.01 -0.0301282 -5.89869e-05 -7.84539e-05 5.77196
0.545 0.01 -0.0299826 -7.39409e-05 -7.81216e-05 5.74032
0.55 0.01 -0.0298093 -8.88913e-05 -7.77146e-05 5.70358
0.555 0.01 -0.0296084 -0.000103801 -7.72328e-05 5.66175
0.56 0.01 -0.0293799 -0.000118631 -7.66767e-05 5.61489
0.565 0.01 -0.0291243 -0.000133344 -7.60466e-05 5.56305
0.57 0.01 -0.0288416 -0.000147901 -7.53434e-05 5.5063
0.575 0.01 -0.0285324 -0.000162261 -7.45677e-05 5.44471
0.58 0.01 -0.0281971 -0.000176386 -7.37209e-05 5.37837
0.585 0.01 -0.0278361 -0.000190237 -7.2804e-05 5.30739
0.59 0.01 -0.0274501 -0.000203772 -7.18186e-05 5.23189
0.595 0.01 -0.0270397 -0.000216954 -7.07664e-05 5.15198
0.6 0.01 -0.0266057 -0.000229744 -6.96492e-05 5.06781
0.605 0.01 -0.0261487 -0.000242103 -6.8469e-05 4.97953
0.61 0.01 -0.0256697 -0.000253995 -6.72282e-05 4.8873
0.615 0.01 -0.0251696 -0.000265384 -6.59292e-05 4.79129
0.62 0.01 -0.0246494 -0.000276233 -6.45745e-05 4.69168
0.625 0.01 -0.02411 -0.00028651 -6.3167e-05 4.58866
0.63 0.01 -0.0235527 -0.000296183 -6.17095e-05 4.48244
0.635 0.01 -0.0229785 -0.000305221 -6.02052e-05 4.37323
0.64 0.01 -0.0223886 -0.000313596 -5.86574e-05 4.26124
0.645 0.01 -0.0217843 -0.000321282 -5.70694e-05 4.1467
0.65 0.01 -0.0211668 -0.000328255 -5.54447e-05 4.02984
0.655 0.01 -0.0205376 -0.000334494 -5.37869e-05 3.91092
0.66 0.01 -0.0198979 -0.00033998 -5.20998e-05 3.79016
0.665 0.01 -0.0192492 -0.000344697 -5.03872e-05 3.66783
0.67 0.01 -0.0185928 -0.000348631 -4.86529e-05 3.54417
0.675 0.01 -0.0179302 -0.000351773 -4.69009e-05 3.41944
0.68 0.01 -0.0172628 -0.000354117 -4.51353e-05 3.29391
0.685 0.01 -0.0165921 -0.000355657 -4.33599e-05 3.16784
0.69 0.01 -0.0159196 -0.000356394 -4.15788e-05 3.04148
0.695 0.01 -0.0152467 -0.00035633 -3.9796e-05 2.91509
0.7 0.01 -0.0145748 -0.000355472 -3.80155e-05 2.78895
0.705 0.01 -0.0139055 -0.000353829 -3.62413e-05 2.66329
0.71 0.01 -0.01324 -0.000351415 -3.44773e-05 2.53838
0.715 0.01 -0.0125798 -0.000348244 -3.27272e-05 2.41446
0.72 0.01 -0.0119263 -0.000344336 -3.09949e-05 2.29179
0.725 0.01 -0.0112807 -0.000339714 -2.92839e-05 2.17058
0.73 0.01 -0.0106444 -0.000334402 -2.75978e-05 2.05108
0.735 0.01 -0.0100186 -0.00032843 -2.59399e-05 1.9335
0.74 0.01 -0.00940442 -0.000321827 -2.43135e-05 1.81807
0.745 0.01 -0.00880301 -0.000314627 -2.27217e-05 1.70497
0.75 0.01 -0.00821545 -0.000306865 -2.11673e-05 1.5944
0.755 0.01 -0.00764273 -0.00029858 -1.96531e-05 1.48655
0.76 0.01 -0.00708577 -0.00028981 -1.81815e-05 1.38159
0.765 0.01 -0.00654544 -0.000280596 -1.6755e-05 1.27966
0.77 0.01 -0.00602251 -0.000270981 -1.53756e-05 1.18092
0.775 0.01 -0.0055177 -0.000261008 -1.40452e-05 1.08549
0.78 0.01 -0.00503164 -0.000250721 -1.27655e-05 0.993503
0.785 0.01 -0.00456488 -0.000240165 -1.1538e-05 0.905048
0.79 0.01 -0.00411788 -0.000229384 -1.03639e-05 0.82022
0.795 0.01 -0.00369105 -0.000218423 -9.24416e-06 0.739095
0.8 0.01 -0.00328468 -0.000207327 -8.17964e-06 0.661733
0.805 0.01 -0.00289902 -0.000196139 -7.17089e-06 0.588183
0.81 0.01 -0.00253422 -0.000184901 -6.21825e-06 0.518477
0.815 0.01 -0.00219034 -0.000173656 -5.32187e-06 0.452635
0.82 0.01 -0.0018674 -0.000162443 -4.48169e-06 0.390664
0.825 0.01 -0.00156533 -0.000151301 -3.69744e-06 0.332557
0.83 0.01 -0.00128399 -0.000140267 -2.96867e-06 0.278295
0.835 0.01 -0.00102316 -0.000129376 -2.29475e-06 0.227846
0.84 0.01 -0.000782588 -0.00011866 -1.67489e-06 0.181168
0.845 0.01 -0.000561941 -0.00010815 -1.10814e-06 0.138205
0.85 0.01 -0.000360838 -9.78733e-05 -5.93382e-07 0.0988951
0.855 0.01 -0.000178846 -8.7856e-05 -1.29392e-07 0.063163
0.86 0.01 -1.54832e-05 -7.81211e-05 2.85191e-07 0.0309259
0.865 0.01 0.000129772 -6.86894e-05 6.51832e-07 0.00209262
0.87 0.01 0.000257481 -5.95794e-05 9.72098e-07 -0.0234358
0.875 0.01 0.00036824 -5.0807e-05 1.24764e-06 -0.0457652
0.88 0.01 0.000462676 -4.23863e-05 1.48018e-06 -0.0650078
0.885 0.01 0.000541443 -3.43293e-05 1.67152e-06 -0.0812819
0.89 0.01 0.00060522 -2.66464e-05 1.82349e-06 -0.0947106
0.895 0.01 0.000654706 -1.93467e-05 1.93799e-06 -0.105422
0.9 0.01 0.000690622 -1.24381e-05 2.01697e-06 -0.113549
0.905 0.01 0.000713705 -5.92844e-06 2.06239e-06 -0.11923
0.91 0.01 0.000724712 1.74621e-07 2.07626e-06 -0.122605
0.915 0.01 0.00072442 5.86243e-06 2.06065e-06 -0.123821
0.92 0.01 0.000713626 1.11247e-05 2.01765e-06 -0.12303
0.925 0.01 0.000693154 1.59483e-05 1.94941e-06 -0.120389
0.93 0.01 0.000663858 2.03163e-05 1.85817e-06 -0.116062
0.935 0.01 0.000626632 2.42063e-05 1.74626e-06 -0.110224
0.94 0.01 0.000582422 2.75886e-05 1.61612e-06 -0.103055
0.945 0.01 0.000532235 3.04243e-05 1.47038e-06 -0.0947536
0.95 0.01 0.00047716 3.26623e-05 1.31188e-06 -0.0855287
0.955 0.01 0.000418389 3.42363e-05 1.14376e-06 -0.0756103
0.96 0.01 0.000357241 3.50606e-05 9.69521e-07 -0.0652498
0.965 0.01 0.000295193 3.50257e-05 7.93156e-07 -0.0547239
0.97 0.01 0.000233913 3.39936e-05 6.19266e-07 -0.0443378
0.975 0.01 0.000175291 3.17942e-05 4.53221e-07 -0.0344248
0.98 0.01 0.000121464 2.82295e-05 3.01324e-07 -0.0253396
0.985 0.01 7.4798e-05 2.31026e-05 1.70926e-07 -0.017436
0.99 0.01 3.77868e-05 1.63261e-05 7.02984e-08 -0.0110107
0.995 0.01 1.27107e-05 8.26642e-06 7.66497e-09 -0.00617521
1 0.01 7.65952e-07 7.66497e-07 -1.23659e-08 -0.00259153
0 0.015 0 0 -0.000612761 0
0.005 0.015 0 0 0 -255.963
0.01 0.015 -0.152858 0.184866 -0.00180046 -79.2554
0.015 0.015 -0.206248 -0.0236535 -0.00184866 -16.6389
0.02 0.015 -0.204598 -0.0573069 -0.00156392 2.31076
0.025 0.015 -0.184583 -0.0522447 -0.00127559 7.92055
0.03 0.015 -0.161063 -0.0416509 -0.00104148 9.24346
0.035 0.015 -0.139027 -0.0325006 -0.00085908 9.11023
0.04 0.015 -0.119765 -0.0255852 -0.00071647 8.48829
0.045 0.015 -0.103315 -0.0204651 -0.000603228 7.73083
0.05 0.015 -0.0893587 -0.0166218 -0.000511819 6.97116
0.055 0.015 -0.0775219 -0.013668 -0.000437009 6.25906
0.06 0.015 -0.0674685 -0.0113428 -0.000375139 5.6112
0.065 0.015 -0.0589158 -0.00947432 -0.000323581 5.03078
0.07 0.015 -0.0516311 -0.00794809 -0.000280395 4.51551
0.075 0.015 -0.045423 -0.00668592 -0.0002441 4.06094
0.08 0.015 -0.0401325 -0.00563256 -0.000213536 3.66191
0.085 0.015 -0.0356267 -0.00474761 -0.000187774 3.31315
0.09 0.015 -0.0317939 -0.00400051 -0.00016606 3.00961
0.095 0.015 -0.028539 -0.00336749 -0.000147769 2.74656
0.1 0.015 -0.0257814 -0.00282961 -0.000132385 2.51963
0.105 0.015 -0.0234521 -0.00237149 -0.000119473 2.32486
0.11 0.015 -0.0214921 -0.00198047 -0.00010867 2.15864
0.115 0.015 -0.0198512 -0.00164602 -9.96683e-05 2.01777
0.12 0.015 -0.0184861 -0.00135933 -9.22096e-05 1.89934
0.125 0.015 -0.0173599 -0.001113 -8.60749e-05 1.80081
0.13 0.015 -0.0164411 -0.000900768 -8.10795e-05 1.71991
0.135 0.015 -0.0157028 -0.000717357 -7.70671e-05 1.65464
0.14 0.015 -0.015122 -0.000558294 -7.39058e-05 1.60325
0.145 0.015 -0.014679 -0.000419797 -7.14841e-05 1.5642
0.15 0.015 -0.0143571 -0.000298663 -6.97078e-05 1.53614
0.155 0.015 -0.0141421 -0.000192183 -6.84974e-05 1.51792
0.16 0.015 -0.0140218 -9.80641e-05 -6.77859e-05 1.5085
0.165 0.015 -0.0139859 -1.43727e-05 -6.75167e-05 1.507
0.17 0.015 -0.0140258 6.05238e-05 -6.76421e-05 1.51266
0.175 0.015 -0.0141338 0.000128 -6.81218e-05 1.5248
0.18 0.015 -0.0143037 0.000189212 -6.8922e-05 1.54285
0.185 0.015 -0.01453 0.000245128 -7.00139e-05 1.5663
0.19 0.015 -0.0148081 0.000296558 -7.13732e-05 1.59471
0.195 0.015 -0.0151341 0.000344178 -7.29794e-05 1.62771
0.2 0.015 -0.0155046 0.000388548 -7.48149e-05 1.66495
0.205 0.015 -0.0159167 0.000430132 -7.68648e-05 1.70614
0.21 0.015 -0.0163677 0.000469312 -7.91162e-05 1.75102
0.215 0.015 -0.0168555 0.000506398 -8.15579e-05 1.79936
0.22 0.015 -0.017378 0.000541643 -8.41802e-05 1.85095
0.225 0.015 -0.0179336 0.00057525 -8.69743e-05 1.9056
0.23 0.015 -0.0185207 0.000607379 -8.99326e-05 1.96313
0.235 0.015 -0.0191377 0.000638155 -9.30481e-05 2.02339
0.24 0.015 -0.0197833 0.000667674 -9.63141e-05 2.08621
0.245 0.015 -0.0204563 0.000696004 -9.97248e-05 2.15147
0.25 0.015 -0.0211554 0.000723196 -0.000103274 2.21901
0.255 0.015 -0.0218795 0.000749281 -0.000106957 2.28872
0.26 0.015 -0.0226273 0.000774274 -0.000110767 2.36044
0.265 0.015 -0.0233977 0.000798178 -0.000114699 2.43407
0.27 0.015 -0.0241897 0.000820988 -0.000118749 2.50946
0.275 0.015 -0.0250019 0.000842686 -0.000122909 2.58649
0.28 0.015 -0.0258333 0.00086325 -0.000127176 2.66503
0.285 0.015 -0.0266826 0.000882652 -0.000131542 2.74495
0.29 0.015 -0.0275487 0.000900856 -0.000136002 2.82611
0.295 0.015 -0.0284302 0.000917824 -0.00014055 2.90839
0.3 0.015 -0.0293258 0.000933517 -0.00014518 2.99165
0.305 0.015 -0.0302344 0.000947889 -0.000149886 3.07574
0.31 0.015 -0.0311544 0.000960897 -0.000154659 3.16053
0.315 0.015 -0.0320844 0.000972494 -0.000159495 3.24587
0.32 0.015 -0.0330231 0.000982633 -0.000164384 3.33161
0.325 0.015 -0.033969 0.000991268 -0.000169321 3.41762
0.33 0.015 -0.0349205 0.000998352 -0.000174297 3.50373
0.335 0.015 -0.035876 0.00100384 -0.000179305 3.5898
0.34 0.015 -0.036834 0.00100769 -0.000184336 3.67567
0.345 0.015 -0.0377929 0.00100986 -0.000189382 3.76118
0.35 0.015 -0.0387509 0.00101031 -0.000194434 3.84618
0.355 0.015 -0.0397064 0.00100899 -0.000199485 3.93051
0.36 0.015 -0.0406577 0.00100588 -0.000204524 4.014
0.365 0.015 -0.041603 0.00100095 -0.000209544 4.09651
0.37 0.015 -0.0425406 0.000994159 -0.000214534 4.17787
0.375 0.015 -0.0434686 0.000985487 -0.000219485 4.25791
0.38 0.015 -0.0443854 0.000974911 -0.000224389 4.33649
0.385 0.015 -0.045289 0.000962413 -0.000229235 4.41344
0.39 0.015 -0.0461777 0.000947979 -0.000234013 4.4886
0.395 0.015 -0.0470496 0.000931598 -0.000238715 4.56182
0.4 0.015 -0.0479029 0.000913266 -0.000243329 4.63295
0.405 0.015 -0.0487359 0.00089298 -0.000247847 4.70183
0.41 0.015 -0.0495466 0.000870745 -0.000252259 4.76832
0.415 0.015 -0.0503334 0.000846567 -0.000256555 4.83226
0.42 0.015 -0.0510945 0.000820461 -0.000260725 4.89352
0.425 0.015 -0.0518281 0.000792443 -0.00026476 4.95196
0.43 0.015 -0.0525324 0.000762536 -0.00026865 5.00744
0.435 0.015 -0.0532059 0.000730767 -0.000272386 5.05983
0.44 0.015 -0.0538468 0.00069717 -0.000275958 5.10901
0.445 0.015 -0.0544536 0.000661783 -0.000279357 5.15486
0.45 0.015 -0.0550246 0.000624647 -0.000282576 5.19725
0.455 0.015 -0.0555584 0.000585811 -0.000285604 5.23609
0.46 0.015 -0.0560534 0.000545329 -0.000288434 5.27126
0.465 0.015 -0.0565084 0.000503258 -0.000291058 5.30267
0.47 0.015 -0.0569218 0.000459663 -0.000293467 5.33023
0.475 0.015 -0.0572926 0.000414612 -0.000295655 5.35385
0.48 0.015 -0.0576194 0.000368179 -0.000297614 5.37346
0.485 0.015 -0.0579011 0.000320443 -0.000299337 5.38898
0.49 0.015 -0.0581366 0.000271487 -0.000300818 5.40035
0.495 0.015 -0.0583251 0.0002214 -0.000302052 5.40752
0.5 0.015 -0.0584656 0.000170276 -0.000303033 5.41044
0.505 0.015 -0.0585573 0.000118214 -0.000303755 5.40907
0.51 0.015 -0.0585996 6.53148e-05 -0.000304215 5.40339
0.515 0.015 -0.0585918 1.16871e-05 -0.000304409 5.39335
0.52 0.015 -0.0585334 -4.2558e-05 -0.000304332 5.37897
0.525 0.015 -0.0584241 -9.7305e-05 -0.000303984 5.36022
0.53 0.015 -0.0582635 -0.000152435 -0.00030336 5.33711
0.535 0.015 -0.0580515 -0.000207824 -0.00030246 5.30965
0.54 0.015 -0.0577881 -0.000263347 -0.000301282 5.27787
0.545 0.015 -0.0574732 -0.000318874 -0.000299826 5.24179
0.55 0.015 -0.0571071 -0.000374273 -0.000298094 5.20145
0.555 0.015 -0.05669 -0.00042941 -0.000296084 5.15691
0.56 0.015 -0.0562225 -0.000484149 -0.0002938 5.10822
0.565 0.015 -0.0557049 -0.000538351 -0.000291243 5.05544
0.57 0.015 -0.0551379 -0.000591879 -0.000288417 4.99865
0.575 0.015 -0.0545224 -0.000644591 -0.000285325 4.93793
0.58 0.015 -0.0538592 -0.000696349 -0.000281971 4.87338
0.585 0.015 -0.0531493 -0.000747013 -0.000278362 4.80509
0.59 0.015 -0.052394 -0.000796444 -0.000274502 4.73318
0.595 0.015 -0.0515944 -0.000844504 -0.000270398 4.65777
0.6 0.015 -0.0507519 -0.000891059 -0.000266057 4.57897
0.605 0.015 -0.0498681 -0.000935977 -0.000261487 4.49693
0.61 0.015 -0.0489445 -0.000979127 -0.000256698 4.41179
0.615 0.015 -0.0479828 -0.00102038 -0.000251697 4.32368
0.62 0.015 -0.046985 -0.00105963 -0.000246494 4.23278
0.625 0.015 -0.0459529 -0.00109674 -0.000241101 4.13924
0.63 0.015 -0.0448885 -0.00113161 -0.000235527 4.04322
0.635 0.015 -0.0437939 -0.00116414 -0.000229785 3.94491
0.64 0.015 -0.0426714 -0.00119422 -0.000223886 3.84448
0.645 0.015 -0.0415232 -0.00122177 -0.000217843 3.74212
0.65 0.015 -0.0403517 -0.00124671 -0.000211669 3.63801
0.655 0.015 -0.0391592 -0.00126897 -0.000205376 3.53236
0.66 0.015 -0.0379484 -0.00128847 -0.000198979 3.42535
0.665 0.015 -0.0367216 -0.00130517 -0.000192492 3.31718
0.67 0.015 -0.0354814 -0.00131903 -0.000185928 3.20806
0.675 0.015 -0.0342305 -0.00133 -0.000179302 3.09819
0.68 0.015 -0.0329714 -0.00133807 -0.000172628 2.98778
0.685 0.015 -0.0317068 -0.00134322 -0.000165922 2.87702
0.69 0.015 -0.0304393 -0.00134546 -0.000159196 2.76613
0.695 0.015 -0.0291715 -0.0013448 -0.000152467 2.65532
0.7 0.015 -0.0279061 -0.00134125 -0.000145749 2.54477
0.705 0.015 -0.0266456 -0.00133486 -0.000139055 2.4347
0.71 0.015 -0.0253926 -0.00132566 -0.0001324 2.3253
0.715 0.015 -0.0241496 -0.00131372 -0.000125799 2.21678
0.72 0.015 -0.022919 -0.00129911 -0.000119263 2.10931
0.725 0.015 -0.0217032 -0.00128189 -0.000112808 2.00309
0.73 0.015 -0.0205046 -0.00126217 -0.000106444 1.8983
0.735 0.015 -0.0193254 -0.00124003 -0.000100186 1.79512
0.74 0.015 -0.0181677 -0.0012156 -9.40443e-05 1.69371
0.745 0.015 -0.0170335 -0.00118898 -8.80303e-05 1.59425
0.75 0.015 -0.0159248 -0.0011603 -8.21546e-05 1.49687
0.755 0.015 -0.0148435 -0.00112969 -7.64274e-05 1.40174
0.76 0.015 -0.0137911 -0.0010973 -7.08578e-05 1.30899
0.765 0.015 -0.0127694 -0.00106327 -6.54545e-05 1.21875
0.77 0.015 -0.0117797 -0.00102774 -6.02252e-05 1.13115
0.775 0.015 -0.0108234 -0.000990877 -5.51771e-05 1.04629
0.78 0.015 -0.00990158 -0.000952832 -5.03165e-05 0.964273
0.785 0.015 -0.00901538 -0.000913764 -4.56488e-05 0.885194
0.79 0.015 -0.00816567 -0.000873834 -4.11789e-05 0.809133
0.795 0.015 -0.0073532 -0.000833203 -3.69105e-05 0.736159
0.8 0.015 -0.00657857 -0.000792028 -3.28468e-05 0.666333
0.805 0.015 -0.00584227 -0.000750469 -2.89902e-05 0.599703
0.81 0.015 -0.00514461 -0.000708679 -2.53422e-05 0.536307
0.815 0.015 -0.0044858 -0.000666811 -2.19034e-05 0.476171
0.82 0.015 -0.00386588 -0.000625009 -1.8674e-05 0.419313
0.825 0.015 -0.00328479 -0.000583417 -1.56533e-05 0.365739
0.83 0.015 -0.00274232 -0.00054217 -1.28398e-05 0.315444
0.835 0.015 -0.00223815 -0.000501395 -1.02316e-05 0.268415
0.84 0.015 -0.00177183 -0.000461216 -7.82584e-06 0.224627