Title=" Lid Driven Flow"
VARIABLES="X","Y","U","V","psi","xi"
ZONE T= "BOX", I= 201, J=201, F=POINT
0 0 0 0 0.0018247 0
0.005 0 0 0 0 0
0.01 0 0 0 0 0
0.015 0 0 0 0 161.89
0.02 0 0 0 0 176.127
0.025 0 0 0 0 155.619
0.03 0 0 0 0 133.246
0.035 0 0 0 0 115.744
0.04 0 0 0 0 102.906
0.045 0 0 0 0 93.3847
0.05 0 0 0 0 86.0692
0.055 0 0 0 0 80.2254
0.06 0 0 0 0 75.3945
0.065 0 0 0 0 71.2879
0.07 0 0 0 0 67.7185
0.075 0 0 0 0 64.5604
0.08 0 0 0 0 61.7261
0.085 0 0 0 0 59.1528
0.09 0 0 0 0 56.7947
0.095 0 0 0 0 54.6172
0.1 0 0 0 0 52.594
0.105 0 0 0 0 50.7049
0.11 0 0 0 0 48.9337
0.115 0 0 0 0 47.2674
0.12 0 0 0 0 45.6957
0.125 0 0 0 0 44.2096
0.13 0 0 0 0 42.802
0.135 0 0 0 0 41.4665
0.14 0 0 0 0 40.1977
0.145 0 0 0 0 38.9908
0.15 0 0 0 0 37.8415
0.155 0 0 0 0 36.7459
0.16 0 0 0 0 35.7006
0.165 0 0 0 0 34.7024
0.17 0 0 0 0 33.7481
0.175 0 0 0 0 32.8352
0.18 0 0 0 0 31.9609
0.185 0 0 0 0 31.1228
0.19 0 0 0 0 30.3187
0.195 0 0 0 0 29.5463
0.2 0 0 0 0 28.8037
0.205 0 0 0 0 28.0889
0.21 0 0 0 0 27.4001
0.215 0 0 0 0 26.7355
0.22 0 0 0 0 26.0935
0.225 0 0 0 0 25.4726
0.23 0 0 0 0 24.8712
0.235 0 0 0 0 24.2881
0.24 0 0 0 0 23.7218
0.245 0 0 0 0 23.1713
0.25 0 0 0 0 22.6352
0.255 0 0 0 0 22.1125
0.26 0 0 0 0 21.6022
0.265 0 0 0 0 21.1034
0.27 0 0 0 0 20.615
0.275 0 0 0 0 20.1364
0.28 0 0 0 0 19.6667
0.285 0 0 0 0 19.2052
0.29 0 0 0 0 18.7512
0.295 0 0 0 0 18.3041
0.3 0 0 0 0 17.8634
0.305 0 0 0 0 17.4286
0.31 0 0 0 0 16.9991
0.315 0 0 0 0 16.5746
0.32 0 0 0 0 16.1547
0.325 0 0 0 0 15.7391
0.33 0 0 0 0 15.3274
0.335 0 0 0 0 14.9196
0.34 0 0 0 0 14.5152
0.345 0 0 0 0 14.1143
0.35 0 0 0 0 13.7166
0.355 0 0 0 0 13.322
0.36 0 0 0 0 12.9306
0.365 0 0 0 0 12.5422
0.37 0 0 0 0 12.1569
0.375 0 0 0 0 11.7747
0.38 0 0 0 0 11.3957
0.385 0 0 0 0 11.0199
0.39 0 0 0 0 10.6474
0.395 0 0 0 0 10.2785
0.4 0 0 0 0 9.91316
0.405 0 0 0 0 9.55164
0.41 0 0 0 0 9.19409
0.415 0 0 0 0 8.84072
0.42 0 0 0 0 8.49173
0.425 0 0 0 0 8.14736
0.43 0 0 0 0 7.80781
0.435 0 0 0 0 7.47333
0.44 0 0 0 0 7.14414
0.445 0 0 0 0 6.8205
0.45 0 0 0 0 6.50263
0.455 0 0 0 0 6.19077
0.46 0 0 0 0 5.88514
0.465 0 0 0 0 5.58598
0.47 0 0 0 0 5.29349
0.475 0 0 0 0 5.00788
0.48 0 0 0 0 4.72934
0.485 0 0 0 0 4.45805
0.49 0 0 0 0 4.19417
0.495 0 0 0 0 3.93785
0.5 0 0 0 0 3.68922
0.505 0 0 0 0 3.44838
0.51 0 0 0 0 3.21544
0.515 0 0 0 0 2.99047
0.52 0 0 0 0 2.77352
0.525 0 0 0 0 2.56461
0.53 0 0 0 0 2.36377
0.535 0 0 0 0 2.17098
0.54 0 0 0 0 1.98622
0.545 0 0 0 0 1.80943
0.55 0 0 0 0 1.64056
0.555 0 0 0 0 1.47951
0.56 0 0 0 0 1.32618
0.565 0 0 0 0 1.18045
0.57 0 0 0 0 1.04219
0.575 0 0 0 0 0.911254
0.58 0 0 0 0 0.787468
0.585 0 0 0 0 0.670664
0.59 0 0 0 0 0.560654
0.595 0 0 0 0 0.457246
0.6 0 0 0 0 0.360235
0.605 0 0 0 0 0.269412
0.61 0 0 0 0 0.184562
0.615 0 0 0 0 0.105466
0.62 0 0 0 0 0.0319001
0.625 0 0 0 0 -0.0363602
0.63 0 0 0 0 -0.0995412
0.635 0 0 0 0 -0.157869
0.64 0 0 0 0 -0.21157
0.645 0 0 0 0 -0.260868
0.65 0 0 0 0 -0.305985
0.655 0 0 0 0 -0.347141
0.66 0 0 0 0 -0.384553
0.665 0 0 0 0 -0.418432
0.67 0 0 0 0 -0.448988
0.675 0 0 0 0 -0.476424
0.68 0 0 0 0 -0.500938
0.685 0 0 0 0 -0.522725
0.69 0 0 0 0 -0.54197
0.695 0 0 0 0 -0.558855
0.7 0 0 0 0 -0.573554
0.705 0 0 0 0 -0.586234
0.71 0 0 0 0 -0.597054
0.715 0 0 0 0 -0.606166
0.72 0 0 0 0 -0.613711
0.725 0 0 0 0 -0.619823
0.73 0 0 0 0 -0.624627
0.735 0 0 0 0 -0.628236
0.74 0 0 0 0 -0.630754
0.745 0 0 0 0 -0.632275
0.75 0 0 0 0 -0.632882
0.755 0 0 0 0 -0.632648
0.76 0 0 0 0 -0.631636
0.765 0 0 0 0 -0.629898
0.77 0 0 0 0 -0.627475
0.775 0 0 0 0 -0.624401
0.78 0 0 0 0 -0.6207
0.785 0 0 0 0 -0.616385
0.79 0 0 0 0 -0.611466
0.795 0 0 0 0 -0.605941
0.8 0 0 0 0 -0.599807
0.805 0 0 0 0 -0.593052
0.81 0 0 0 0 -0.58566
0.815 0 0 0 0 -0.577615
0.82 0 0 0 0 -0.568894
0.825 0 0 0 0 -0.559476
0.83 0 0 0 0 -0.549339
0.835 0 0 0 0 -0.538462
0.84 0 0 0 0 -0.526824
0.845 0 0 0 0 -0.514409
0.85 0 0 0 0 -0.501203
0.855 0 0 0 0 -0.487196
0.86 0 0 0 0 -0.472385
0.865 0 0 0 0 -0.456771
0.87 0 0 0 0 -0.440363
0.875 0 0 0 0 -0.423178
0.88 0 0 0 0 -0.405238
0.885 0 0 0 0 -0.386576
0.89 0 0 0 0 -0.367234
0.895 0 0 0 0 -0.347263
0.9 0 0 0 0 -0.326724
0.905 0 0 0 0 -0.305688
0.91 0 0 0 0 -0.284238
0.915 0 0 0 0 -0.262466
0.92 0 0 0 0 -0.240479
0.925 0 0 0 0 -0.218393
0.93 0 0 0 0 -0.196338
0.935 0 0 0 0 -0.174456
0.94 0 0 0 0 -0.152904
0.945 0 0 0 0 -0.131851
0.95 0 0 0 0 -0.111484
0.955 0 0 0 0 -0.0920034
0.96 0 0 0 0 -0.0736275
0.965 0 0 0 0 -0.056592
0.97 0 0 0 0 -0.0411501
0.975 0 0 0 0 -0.0275719
0.98 0 0 0 0 -0.0161396
0.985 0 0 0 0 -0.00713677
0.99 0 0 0 0 -0.000820652
0.995 0 0 0 0 0.00264095
1 0 0 0 0 0.00331496
0 0.005 0 0 0 0
0.005 0.005 0 0 0 0
0.01 0.005 0 0 0 73.7264
0.015 0.005 0 0 0 62.0258
0.02 0.005 0 0 0 45.6225
0.025 0.005 0 0 0 33.8239
0.03 0.005 0 0 0 25.9343
0.035 0.005 0 0 0 20.551
0.04 0.005 0 0 0 16.7225
0.045 0.005 0 0 0 13.886
0.05 0.005 0 0 0 11.7119
0.055 0.005 0 0 0 10.0013
0.06 0.005 0 0 0 8.62839
0.065 0.005 0 0 0 7.50994
0.07 0.005 0 0 0 6.58842
0.075 0.005 0 0 0 5.82253
0.08 0.005 0 0 0 5.18168
0.085 0.005 0 0 0 4.64263
0.09 0.005 0 0 0 4.18735
0.095 0.005 0 0 0 3.80163
0.1 0.005 0 0 0 3.47408
0.105 0.005 0 0 0 3.1955
0.11 0.005 0 0 0 2.95841
0.115 0.005 0 0 0 2.75661
0.12 0.005 0 0 0 2.58501
0.125 0.005 0 0 0 2.43937
0.13 0.005 0 0 0 2.31612
0.135 0.005 0 0 0 2.21228
0.14 0.005 0 0 0 2.12535
0.145 0.005 0 0 0 2.05319
0.15 0.005 0 0 0 1.99399
0.155 0.005 0 0 0 1.94622
0.16 0.005 0 0 0 1.90856
0.165 0.005 0 0 0 1.87988
0.17 0.005 0 0 0 1.85922
0.175 0.005 0 0 0 1.84573
0.18 0.005 0 0 0 1.83869
0.185 0.005 0 0 0 1.83748
0.19 0.005 0 0 0 1.84153
0.195 0.005 0 0 0 1.85039
0.2 0.005 0 0 0 1.86361
0.205 0.005 0 0 0 1.88084
0.21 0.005 0 0 0 1.90173
0.215 0.005 0 0 0 1.926
0.22 0.005 0 0 0 1.95338
0.225 0.005 0 0 0 1.98363
0.23 0.005 0 0 0 2.01652
0.235 0.005 0 0 0 2.05187
0.24 0.005 0 0 0 2.08947
0.245 0.005 0 0 0 2.12917
0.25 0.005 0 0 0 2.17079
0.255 0.005 0 0 0 2.21419
0.26 0.005 0 0 0 2.25921
0.265 0.005 0 0 0 2.30571
0.27 0.005 0 0 0 2.35356
0.275 0.005 0 0 0 2.40262
0.28 0.005 0 0 0 2.45276
0.285 0.005 0 0 0 2.50384
0.29 0.005 0 0 0 2.55576
0.295 0.005 0 0 0 2.60836
0.3 0.005 0 0 0 2.66154
0.305 0.005 0 0 0 2.71515
0.31 0.005 0 0 0 2.76909
0.315 0.005 0 0 0 2.82321
0.32 0.005 0 0 0 2.8774
0.325 0.005 0 0 0 2.93152
0.33 0.005 0 0 0 2.98546
0.335 0.005 0 0 0 3.03907
0.34 0.005 0 0 0 3.09225
0.345 0.005 0 0 0 3.14485
0.35 0.005 0 0 0 3.19675
0.355 0.005 0 0 0 3.24782
0.36 0.005 0 0 0 3.29795
0.365 0.005 0 0 0 3.347
0.37 0.005 0 0 0 3.39485
0.375 0.005 0 0 0 3.44137
0.38 0.005 0 0 0 3.48646
0.385 0.005 0 0 0 3.52998
0.39 0.005 0 0 0 3.57182
0.395 0.005 0 0 0 3.61186
0.4 0.005 0 0 0 3.65001
0.405 0.005 0 0 0 3.68614
0.41 0.005 0 0 0 3.72015
0.415 0.005 0 0 0 3.75194
0.42 0.005 0 0 0 3.78143
0.425 0.005 0 0 0 3.8085
0.43 0.005 0 0 0 3.83309
0.435 0.005 0 0 0 3.8551
0.44 0.005 0 0 0 3.87447
0.445 0.005 0 0 0 3.89111
0.45 0.005 0 0 0 3.90497
0.455 0.005 0 0 0 3.91599
0.46 0.005 0 0 0 3.92412
0.465 0.005 0 0 0 3.92932
0.47 0.005 0 0 0 3.93154
0.475 0.005 0 0 0 3.93076
0.48 0.005 0 0 0 3.92695
0.485 0.005 0 0 0 3.9201
0.49 0.005 0 0 0 3.9102
0.495 0.005 0 0 0 3.89726
0.5 0.005 0 0 0 3.88127
0.505 0.005 0 0 0 3.86226
0.51 0.005 0 0 0 3.84024
0.515 0.005 0 0 0 3.81525
0.52 0.005 0 0 0 3.78732
0.525 0.005 0 0 0 3.75651
0.53 0.005 0 0 0 3.72286
0.535 0.005 0 0 0 3.68643
0.54 0.005 0 0 0 3.6473
0.545 0.005 0 0 0 3.60552
0.55 0.005 0 0 0 3.56119
0.555 0.005 0 0 0 3.51439
0.56 0.005 0 0 0 3.46521
0.565 0.005 0 0 0 3.41375
0.57 0.005 0 0 0 3.36011
0.575 0.005 0 0 0 3.30439
0.58 0.005 0 0 0 3.24672
0.585 0.005 0 0 0 3.18719
0.59 0.005 0 0 0 3.12595
0.595 0.005 0 0 0 3.06309
0.6 0.005 0 0 0 2.99876
0.605 0.005 0 0 0 2.93307
0.61 0.005 0 0 0 2.86616
0.615 0.005 0 0 0 2.79815
0.62 0.005 0 0 0 2.72917
0.625 0.005 0 0 0 2.65936
0.63 0.005 0 0 0 2.58885
0.635 0.005 0 0 0 2.51776
0.64 0.005 0 0 0 2.44622
0.645 0.005 0 0 0 2.37436
0.65 0.005 0 0 0 2.30231
0.655 0.005 0 0 0 2.23019
0.66 0.005 0 0 0 2.15811
0.665 0.005 0 0 0 2.0862
0.67 0.005 0 0 0 2.01457
0.675 0.005 0 0 0 1.94332
0.68 0.005 0 0 0 1.87258
0.685 0.005 0 0 0 1.80243
0.69 0.005 0 0 0 1.73297
0.695 0.005 0 0 0 1.66431
0.7 0.005 0 0 0 1.59652
0.705 0.005 0 0 0 1.52968
0.71 0.005 0 0 0 1.46389
0.715 0.005 0 0 0 1.39921
0.72 0.005 0 0 0 1.3357
0.725 0.005 0 0 0 1.27344
0.73 0.005 0 0 0 1.21247
0.735 0.005 0 0 0 1.15286
0.74 0.005 0 0 0 1.09465
0.745 0.005 0 0 0 1.03787
0.75 0.005 0 0 0 0.982578
0.755 0.005 0 0 0 0.928793
0.76 0.005 0 0 0 0.876547
0.765 0.005 0 0 0 0.825862
0.77 0.005 0 0 0 0.776756
0.775 0.005 0 0 0 0.729246
0.78 0.005 0 0 0 0.68334
0.785 0.005 0 0 0 0.639046
0.79 0.005 0 0 0 0.596366
0.795 0.005 0 0 0 0.5553
0.8 0.005 0 0 0 0.515844
0.805 0.005 0 0 0 0.477991
0.81 0.005 0 0 0 0.441731
0.815 0.005 0 0 0 0.407051
0.82 0.005 0 0 0 0.373939
0.825 0.005 0 0 0 0.342375
0.83 0.005 0 0 0 0.312342
0.835 0.005 0 0 0 0.283819
0.84 0.005 0 0 0 0.256783
0.845 0.005 0 0 0 0.231212
0.85 0.005 0 0 0 0.207081
0.855 0.005 0 0 0 0.184363
0.86 0.005 0 0 0 0.163032
0.865 0.005 0 0 0 0.143062
0.87 0.005 0 0 0 0.124424
0.875 0.005 0 0 0 0.107091
0.88 0.005 0 0 0 0.0910328
0.885 0.005 0 0 0 0.0762224
0.89 0.005 0 0 0 0.0626308
0.895 0.005 0 0 0 0.0502293
0.9 0.005 0 0 0 0.0389894
0.905 0.005 0 0 0 0.0288825
0.91 0.005 0 0 0 0.0198801
0.915 0.005 0 0 0 0.0119535
0.92 0.005 0 0 0 0.005074
0.925 0.005 0 0 0 -0.000787637
0.93 0.005 0 0 0 -0.00566135
0.935 0.005 0 0 0 -0.00957826
0.94 0.005 0 0 0 -0.0125713
0.945 0.005 0 0 0 -0.014676
0.95 0.005 0 0 0 -0.015932
0.955 0.005 0 0 0 -0.0163842
0.96 0.005 0 0 0 -0.0160856
0.965 0.005 0 0 0 -0.0151006
0.97 0.005 0 0 0 -0.0135095
0.975 0.005 0 0 0 -0.0114156
0.98 0.005 0 0 0 -0.00895542
0.985 0.005 0 0 0 -0.006313
0.99 0.005 0 0 0 -0.00373968
0.995 0.005 0 0 0 -0.00157313
1 0.005 0 0 0 -0.000224787
0 0.01 0 0 -0.000224787 0
0.005 0.01 0 0 0 -326.274
0.01 0.01 -0.179997 0.0775323 -0.00092158 -44.4409
0.015 0.01 -0.184664 -0.0351299 -0.000775323 9.48832
0.02 0.01 -0.156021 -0.0352524 -0.000570281 19.0884
0.025 0.01 -0.127118 -0.0246102 -0.000422799 18.9779
0.03 0.01 -0.103789 -0.0165911 -0.000324179 16.8343
0.035 0.01 -0.0857764 -0.0115148 -0.000256888 14.5369
0.04 0.01 -0.071854 -0.00833131 -0.000209032 12.5151
0.045 0.01 -0.0609374 -0.00626324 -0.000173575 10.8202
0.05 0.01 -0.0522338 -0.00485586 -0.000146399 9.41331
0.055 0.01 -0.0451885 -0.00385443 -0.000125016 8.24295
0.06 0.01 -0.0394126 -0.0031142 -0.000107855 7.26391
0.065 0.01 -0.0346287 -0.00254995 -9.38741e-05 6.44002
0.07 0.01 -0.030634 -0.00210925 -8.23551e-05 5.74301
0.075 0.01 -0.0272768 -0.00175842 -7.27815e-05 5.15071
0.08 0.01 -0.0244409 -0.00147486 -6.47708e-05 4.64559
0.085 0.01 -0.0220359 -0.00124289 -5.80327e-05 4.21362
0.09 0.01 -0.01999 -0.00105124 -5.23418e-05 3.84344
0.095 0.01 -0.0182457 -0.000891579 -4.75202e-05 3.52575
0.1 0.01 -0.0167562 -0.000757637 -4.34258e-05 3.25288
0.105 0.01 -0.015483 -0.000644572 -3.99436e-05 3.01845
0.11 0.01 -0.0143947 -0.000548601 -3.69799e-05 2.81713
0.115 0.01 -0.0134648 -0.000466724 -3.44575e-05 2.64443
0.12 0.01 -0.0126715 -0.000396539 -3.23125e-05 2.49656
0.125 0.01 -0.0119962 -0.000336104 -3.04919e-05 2.37031
0.13 0.01 -0.0114234 -0.000283838 -2.89513e-05 2.26294
0.135 0.01 -0.0109399 -0.000238444 -2.76534e-05 2.17213
0.14 0.01 -0.0105345 -0.000198853 -2.65667e-05 2.09586
0.145 0.01 -0.0101978 -0.000164182 -2.56647e-05 2.03244
0.15 0.01 -0.00992162 -0.000133694 -2.49248e-05 1.98038
0.155 0.01 -0.00969891 -0.000106774 -2.43276e-05 1.93841
0.16 0.01 -0.00952372 -8.2909e-05 -2.38569e-05 1.90543
0.165 0.01 -0.00939088 -6.16661e-05 -2.34984e-05 1.88048
0.17 0.01 -0.00929592 -4.26814e-05 -2.32401e-05 1.86274
0.175 0.01 -0.00923496 -2.56478e-05 -2.30715e-05 1.85148
0.18 0.01 -0.00920462 -1.03057e-05 -2.29835e-05 1.84607
0.185 0.01 -0.00920198 3.56484e-06 -2.29683e-05 1.84596
0.19 0.01 -0.00922444 1.61502e-05 -2.30191e-05 1.85064
0.195 0.01 -0.00926974 2.76083e-05 -2.31298e-05 1.8597
0.2 0.01 -0.00933589 3.80735e-05 -2.32951e-05 1.87275
0.205 0.01 -0.00942109 4.76595e-05 -2.35104e-05 1.88944
0.21 0.01 -0.00952377 5.64627e-05 -2.37716e-05 1.90946
0.215 0.01 -0.0096425 6.45649e-05 -2.4075e-05 1.93256
0.22 0.01 -0.00977601 7.20352e-05 -2.44172e-05 1.95846
0.225 0.01 -0.00992312 7.89319e-05 -2.47953e-05 1.98695
0.23 0.01 -0.0100828 8.53041e-05 -2.52065e-05 2.01782
0.235 0.01 -0.010254 9.1193e-05 -2.56483e-05 2.05086
0.24 0.01 -0.0104359 9.66329e-05 -2.61184e-05 2.08591
0.245 0.01 -0.0106275 0.000101652 -2.66146e-05 2.1228
0.25 0.01 -0.0108282 0.000106275 -2.71349e-05 2.16136
0.255 0.01 -0.0110371 0.00011052 -2.76773e-05 2.20145
0.26 0.01 -0.0112535 0.000114404 -2.82401e-05 2.24292
0.265 0.01 -0.0114767 0.000117938 -2.88214e-05 2.28562
0.27 0.01 -0.011706 0.000121132 -2.94195e-05 2.32944
0.275 0.01 -0.0119408 0.000123995 -3.00327e-05 2.37423
0.28 0.01 -0.0121804 0.000126532 -3.06595e-05 2.41988
0.285 0.01 -0.0124242 0.000128747 -3.12981e-05 2.46624
0.29 0.01 -0.0126715 0.000130643 -3.1947e-05 2.51321
0.295 0.01 -0.0129218 0.000132222 -3.26046e-05 2.56065
0.3 0.01 -0.0131744 0.000133485 -3.32693e-05 2.60846
0.305 0.01 -0.0134287 0.000134432 -3.39395e-05 2.6565
0.31 0.01 -0.0136841 0.000135064 -3.46137e-05 2.70465
0.315 0.01 -0.01394 0.00013538 -3.52903e-05 2.75281
0.32 0.01 -0.0141957 0.000135379 -3.59676e-05 2.80085
0.325 0.01 -0.0144507 0.000135061 -3.66442e-05 2.84866
0.33 0.01 -0.0147043 0.000134426 -3.73183e-05 2.89611
0.335 0.01 -0.014956 0.000133472 -3.79886e-05 2.94309
0.34 0.01 -0.0152051 0.000132201 -3.86532e-05 2.98949
0.345 0.01 -0.015451 0.000130612 -3.93107e-05 3.0352
0.35 0.01 -0.0156931 0.000128707 -3.99595e-05 3.08009
0.355 0.01 -0.0159309 0.000126485 -4.0598e-05 3.12406
0.36 0.01 -0.0161637 0.00012395 -4.12246e-05 3.167
0.365 0.01 -0.016391 0.000121104 -4.18377e-05 3.20879
0.37 0.01 -0.0166121 0.000117949 -4.24358e-05 3.24933
0.375 0.01 -0.0168266 0.00011449 -4.30174e-05 3.28852
0.38 0.01 -0.0170337 0.00011073 -4.3581e-05 3.32625
0.385 0.01 -0.0172331 0.000106677 -4.4125e-05 3.36242
0.39 0.01 -0.0174241 0.000102334 -4.4648e-05 3.39693
0.395 0.01 -0.0176063 9.77104e-05 -4.51486e-05 3.42968
0.4 0.01 -0.0177791 9.28126e-05 -4.56254e-05 3.4606
0.405 0.01 -0.017942 8.76496e-05 -4.6077e-05 3.48958
0.41 0.01 -0.0180945 8.22307e-05 -4.65022e-05 3.51654
0.415 0.01 -0.0182363 7.65662e-05 -4.68996e-05 3.54141
0.42 0.01 -0.0183669 7.06671e-05 -4.72682e-05 3.56411
0.425 0.01 -0.0184858 6.45454e-05 -4.76066e-05 3.58456
0.43 0.01 -0.0185927 5.82138e-05 -4.7914e-05 3.60271
0.435 0.01 -0.0186873 5.16856e-05 -4.81891e-05 3.61848
0.44 0.01 -0.0187691 4.4975e-05 -4.84312e-05 3.63182
0.445 0.01 -0.018838 3.80969e-05 -4.86392e-05 3.64268
0.45 0.01 -0.0188936 3.10669e-05 -4.88125e-05 3.65102
0.455 0.01 -0.0189356 2.39011e-05 -4.89503e-05 3.65679
0.46 0.01 -0.0189639 1.66162e-05 -4.90519e-05 3.65996
0.465 0.01 -0.0189783 9.22954e-06 -4.91169e-05 3.66051
0.47 0.01 -0.0189787 1.75879e-06 -4.91446e-05 3.65841
0.475 0.01 -0.0189648 -5.77791e-06 -4.91349e-05 3.65364
0.48 0.01 -0.0189367 -1.33621e-05 -4.90873e-05 3.6462
0.485 0.01 -0.0188943 -2.0975e-05 -4.90017e-05 3.63608
0.49 0.01 -0.0188376 -2.85976e-05 -4.8878e-05 3.62329
0.495 0.01 -0.0187666 -3.62109e-05 -4.87162e-05 3.60783
0.5 0.01 -0.0186813 -4.37957e-05 -4.85163e-05 3.58973
0.505 0.01 -0.018582 -5.13328e-05 -4.82786e-05 3.569
0.51 0.01 -0.0184686 -5.88031e-05 -4.80034e-05 3.54568
0.515 0.01 -0.0183413 -6.61878e-05 -4.76911e-05 3.51979
0.52 0.01 -0.0182004 -7.3468e-05 -4.7342e-05 3.49138
0.525 0.01 -0.0180461 -8.06256e-05 -4.69568e-05 3.4605
0.53 0.01 -0.0178787 -8.76424e-05 -4.65362e-05 3.42719
0.535 0.01 -0.0176983 -9.45009e-05 -4.60809e-05 3.39152
0.54 0.01 -0.0175055 -0.000101184 -4.55917e-05 3.35355
0.545 0.01 -0.0173004 -0.000107676 -4.50695e-05 3.31335
0.55 0.01 -0.0170836 -0.000113961 -4.45154e-05 3.27099
0.555 0.01 -0.0168554 -0.000120023 -4.39303e-05 3.22655
0.56 0.01 -0.0166162 -0.000125849 -4.33156e-05 3.18011
0.565 0.01 -0.0163666 -0.000131426 -4.26723e-05 3.13177
0.57 0.01 -0.0161069 -0.00013674 -4.20018e-05 3.0816
0.575 0.01 -0.0158377 -0.000141782 -4.13053e-05 3.02971
0.58 0.01 -0.0155596 -0.00014654 -4.05844e-05 2.97619
0.585 0.01 -0.015273 -0.000151005 -3.98403e-05 2.92114
0.59 0.01 -0.0149786 -0.000155169 -3.90747e-05 2.86467
0.595 0.01 -0.0146768 -0.000159025 -3.82891e-05 2.80688
0.6 0.01 -0.0143683 -0.000162567 -3.74849e-05 2.74788
0.605 0.01 -0.0140537 -0.000165791 -3.66638e-05 2.68778
0.61 0.01 -0.0137335 -0.000168692 -3.58274e-05 2.62668
0.615 0.01 -0.0134084 -0.000171269 -3.49773e-05 2.56469
0.62 0.01 -0.0130789 -0.00017352 -3.41151e-05 2.50193
0.625 0.01 -0.0127456 -0.000175444 -3.32424e-05 2.43851
0.63 0.01 -0.0124092 -0.000177044 -3.2361e-05 2.37454
0.635 0.01 -0.0120703 -0.000178321 -3.14723e-05 2.31012
0.64 0.01 -0.0117294 -0.000179279 -3.05781e-05 2.24536
0.645 0.01 -0.0113871 -0.000179921 -2.96798e-05 2.18038
0.65 0.01 -0.0110441 -0.000180253 -2.87792e-05 2.11527
0.655 0.01 -0.0107008 -0.000180282 -2.78776e-05 2.05014
0.66 0.01 -0.0103578 -0.000180014 -2.69767e-05 1.98509
0.665 0.01 -0.0100157 -0.000179457 -2.60778e-05 1.92022
0.67 0.01 -0.00967501 -0.00017862 -2.51823e-05 1.85562
0.675 0.01 -0.00933619 -0.000177513 -2.42918e-05 1.79139
0.68 0.01 -0.00899976 -0.000176146 -2.34075e-05 1.72761
0.685 0.01 -0.00866618 -0.00017453 -2.25306e-05 1.66438
0.69 0.01 -0.0083359 -0.000172675 -2.16624e-05 1.60177
0.695 0.01 -0.00800935 -0.000170594 -2.0804e-05 1.53986
0.7 0.01 -0.00768694 -0.000168299 -1.99566e-05 1.47873
0.705 0.01 -0.00736905 -0.000165802 -1.91212e-05 1.41845
0.71 0.01 -0.00705604 -0.000163115 -1.82988e-05 1.35907
0.715 0.01 -0.00674826 -0.000160253 -1.74903e-05 1.30068
0.72 0.01 -0.00644601 -0.000157227 -1.66964e-05 1.24332
0.725 0.01 -0.00614959 -0.00015405 -1.59181e-05 1.18704
0.73 0.01 -0.00585927 -0.000150736 -1.51561e-05 1.1319
0.735 0.01 -0.00557528 -0.000147298 -1.44109e-05 1.07795
0.74 0.01 -0.00529786 -0.000143747 -1.36832e-05 1.02521
0.745 0.01 -0.00502719 -0.000140098 -1.29735e-05 0.973738
0.75 0.01 -0.00476346 -0.000136361 -1.22823e-05 0.923557
0.755 0.01 -0.00450681 -0.000132549 -1.161e-05 0.874698
0.76 0.01 -0.00425739 -0.000128674 -1.09569e-05 0.827186
0.765 0.01 -0.00401529 -0.000124746 -1.03233e-05 0.781041
0.77 0.01 -0.00378061 -0.000120777 -9.70952e-06 0.736282
0.775 0.01 -0.00355342 -0.000116777 -9.11563e-06 0.692923
0.78 0.01 -0.00333377 -0.000112755 -8.5418e-06 0.650973
0.785 0.01 -0.0031217 -0.000108722 -7.98812e-06 0.61044
0.79 0.01 -0.00291722 -0.000104687 -7.45462e-06 0.571329
0.795 0.01 -0.00272034 -0.000100657 -6.94128e-06 0.533641
0.8 0.01 -0.00253104 -9.664e-05 -6.44807e-06 0.497374
0.805 0.01 -0.0023493 -9.26442e-05 -5.9749e-06 0.462524
0.81 0.01 -0.00217506 -8.8676e-05 -5.52165e-06 0.429085
0.815 0.01 -0.00200829 -8.47416e-05 -5.08815e-06 0.397048
0.82 0.01 -0.00184892 -8.08466e-05 -4.67424e-06 0.366402
0.825 0.01 -0.00169686 -7.69964e-05 -4.27969e-06 0.337135
0.83 0.01 -0.00155205 -7.31955e-05 -3.90427e-06 0.309232
0.835 0.01 -0.00141438 -6.94481e-05 -3.54773e-06 0.282676
0.84 0.01 -0.00128375 -6.57578e-05 -3.20979e-06 0.257451
0.845 0.01 -0.00116007 -6.21278e-05 -2.89015e-06 0.233537
0.85 0.01 -0.00104322 -5.85609e-05 -2.5885e-06 0.210915
0.855 0.01 -0.000933082 -5.50592e-05 -2.30452e-06 0.189564
0.86 0.01 -0.000829535 -5.16248e-05 -2.03789e-06 0.169463
0.865 0.01 -0.000732456 -4.8259e-05 -1.78826e-06 0.150587
0.87 0.01 -0.000641717 -4.4963e-05 -1.55529e-06 0.132916
0.875 0.01 -0.000557189 -4.17377e-05 -1.33861e-06 0.116424
0.88 0.01 -0.000478741 -3.85835e-05 -1.13789e-06 0.101088
0.885 0.01 -0.000406241 -3.55007e-05 -9.52762e-07 0.0868842
0.89 0.01 -0.000339555 -3.24896e-05 -7.82867e-07 0.0737872
0.895 0.01 -0.000278549 -2.95499e-05 -6.27849e-07 0.0617721
0.9 0.01 -0.000223089 -2.66817e-05 -4.8735e-07 0.0508137
0.905 0.01 -0.00017304 -2.38849e-05 -3.61014e-07 0.0408865
0.91 0.01 -0.000128264 -2.11595e-05 -2.48484e-07 0.0319645
0.915 0.01 -8.86261e-05 -1.85059e-05 -1.49403e-07 0.0240213
0.92 0.01 -5.39851e-05 -1.59248e-05 -6.34099e-08 0.0170298
0.925 0.01 -2.41986e-05 -1.34177e-05 9.85957e-09 0.0109617
0.93 0.01 8.81255e-07 -1.09869e-05 7.07799e-08 0.0057879
0.935 0.01 2.14094e-05 -8.63611e-06 1.1974e-07 0.00147704
0.94 0.01 3.7551e-05 -6.371e-06 1.57152e-07 -0.00200445
0.945 0.01 4.94858e-05 -4.19977e-06 1.8346e-07 -0.00469347
0.95 0.01 5.74139e-05 -2.13422e-06 1.99158e-07 -0.00663135
0.955 0.01 6.15629e-05 -1.91263e-07 2.04809e-07 -0.00786535
0.96 0.01 6.21991e-05 1.6051e-06 2.01076e-07 -0.00845057
0.965 0.01 5.96411e-05 3.22069e-06 1.88763e-07 -0.00845257
0.97 0.01 5.42788e-05 4.6067e-06 1.68873e-07 -0.00795049
0.975 0.01 4.65997e-05 5.69298e-06 1.42698e-07 -0.00704103
0.98 0.01 3.72228e-05 6.37855e-06 1.11944e-07 -0.00584259
0.985 0.01 2.69412e-05 6.51983e-06 7.89132e-08 -0.00449806
0.99 0.01 1.67684e-05 5.92491e-06 4.67462e-08 -0.0031711
0.995 0.01 7.96375e-06 4.39364e-06 1.9664e-08 -0.00202153
1 0.01 1.96212e-06 1.9664e-06 2.80974e-09 -0.00112186
0 0.015 0 0 -0.0015697 0
0.005 0.015 0 0 0 -256.002
0.01 0.015 -0.152741 0.184664 -0.00179997 -79.3074
0.015 0.015 -0.205935 -0.023976 -0.00184664 -16.655
0.02 0.015 -0.204133 -0.0575455 -0.00156021 2.35447
0.025 0.015 -0.184125 -0.0522329 -0.00127118 8.00865
0.03 0.015 -0.160823 -0.041342 -0.00103789 9.35973
0.035 0.015 -0.139206 -0.0319345 -0.000857764 9.24824
0.04 0.015 -0.120519 -0.024839 -0.00071854 8.64906
0.045 0.015 -0.104743 -0.0196202 -0.000609374 7.91863
0.05 0.015 -0.0915059 -0.0157489 -0.000522338 7.19057
0.055 0.015 -0.0803879 -0.0128211 -0.000451885 6.51347
0.06 0.015 -0.0710178 -0.0105597 -0.000394126 5.90219
0.065 0.015 -0.0630888 -0.00877858 -0.000346287 5.35817
0.07 0.015 -0.0563533 -0.00735192 -0.00030634 4.87754
0.075 0.015 -0.0506124 -0.00619308 -0.000272767 4.45468
0.08 0.015 -0.0457055 -0.00524083 -0.000244408 4.08356
0.085 0.015 -0.041502 -0.00445082 -0.000220358 3.75843
0.09 0.015 -0.037895 -0.00379013 -0.0001999 3.47401
0.095 0.015 -0.0347963 -0.00323382 -0.000182456 3.22555
0.1 0.015 -0.0321326 -0.00276262 -0.000167561 3.00883
0.105 0.015 -0.0298427 -0.0023614 -0.00015483 2.82013
0.11 0.015 -0.0278752 -0.00201813 -0.000143946 2.65619
0.115 0.015 -0.0261869 -0.00172315 -0.000134648 2.51415
0.12 0.015 -0.024741 -0.0014686 -0.000126714 2.39149
0.125 0.015 -0.0235063 -0.00124806 -0.000119961 2.28601
0.13 0.015 -0.0224564 -0.00105624 -0.000114233 2.19579
0.135 0.015 -0.0215686 -0.000888759 -0.000109398 2.11914
0.14 0.015 -0.0208234 -0.000741983 -0.000105345 2.05459
0.145 0.015 -0.0202042 -0.00061287 -0.000101978 2.00084
0.15 0.015 -0.0196965 -0.000498871 -9.92157e-05 1.95676
0.155 0.015 -0.019288 -0.000397845 -9.69887e-05 1.92135
0.16 0.015 -0.0189679 -0.000307983 -9.52368e-05 1.89372
0.165 0.015 -0.0187269 -0.000227761 -9.39084e-05 1.87312
0.17 0.015 -0.0185568 -0.000155883 -9.29588e-05 1.85885
0.175 0.015 -0.0184506 -9.12533e-05 -9.23492e-05 1.85031
0.18 0.015 -0.0184021 -3.29384e-05 -9.20458e-05 1.84696
0.185 0.015 -0.0184059 1.98549e-05 -9.20194e-05 1.84833
0.19 0.015 -0.0184571 6.78024e-05 -9.22441e-05 1.854
0.195 0.015 -0.0185516 0.00011148 -9.26971e-05 1.86358
0.2 0.015 -0.0186854 0.000151377 -9.33586e-05 1.87673
0.205 0.015 -0.0188554 0.000187912 -9.42106e-05 1.89315
0.21 0.015 -0.0190585 0.00022144 -9.52375e-05 1.91256
0.215 0.015 -0.0192919 0.000252263 -9.64248e-05 1.9347
0.22 0.015 -0.0195533 0.000280639 -9.77599e-05 1.95934
0.225 0.015 -0.0198403 0.000306784 -9.92311e-05 1.98627
0.23 0.015 -0.0201509 0.000330883 -0.000100828 2.0153
0.235 0.015 -0.0204832 0.000353089 -0.00010254 2.04623
0.24 0.015 -0.0208355 0.000373533 -0.000104358 2.0789
0.245 0.015 -0.0212059 0.000392323 -0.000106275 2.11314
0.25 0.015 -0.0215931 0.00040955 -0.000108282 2.14881
0.255 0.015 -0.0219955 0.000425287 -0.000110371 2.18575
0.26 0.015 -0.0224117 0.000439596 -0.000112535 2.22383
0.265 0.015 -0.0228402 0.000452527 -0.000114767 2.26291
0.27 0.015 -0.0232798 0.000464117 -0.00011706 2.30286
0.275 0.015 -0.0237291 0.000474401 -0.000119408 2.34356
0.28 0.015 -0.024187 0.0004834 -0.000121804 2.38488
0.285 0.015 -0.024652 0.000491135 -0.000124242 2.4267
0.29 0.015 -0.0251231 0.00049762 -0.000126716 2.46891
0.295 0.015 -0.025599 0.000502864 -0.000129219 2.51138
0.3 0.015 -0.0260784 0.000506874 -0.000131745 2.554
0.305 0.015 -0.0265602 0.000509657 -0.000134288 2.59666
0.31 0.015 -0.0270433 0.000511215 -0.000136842 2.63926
0.315 0.015 -0.0275263 0.00051155 -0.0001394 2.68166
0.32 0.015 -0.0280082 0.000510664 -0.000141958 2.72378
0.325 0.015 -0.0284878 0.000508559 -0.000144507 2.7655
0.33 0.015 -0.0289639 0.000505237 -0.000147044 2.80671
0.335 0.015 -0.0294353 0.000500701 -0.00014956 2.84731
0.34 0.015 -0.0299009 0.000494955 -0.000152051 2.8872
0.345 0.015 -0.0303595 0.000488004 -0.000154511 2.92628
0.35 0.015 -0.03081 0.000479854 -0.000156932 2.96444
0.355 0.015 -0.0312514 0.000470516 -0.00015931 3.00159
0.36 0.015 -0.0316824 0.000459999 -0.000161638 3.03763
0.365 0.015 -0.032102 0.000448317 -0.000163911 3.07247
0.37 0.015 -0.0325091 0.000435485 -0.000166122 3.10602
0.375 0.015 -0.0329026 0.000421523 -0.000168267 3.13818
0.38 0.015 -0.0332815 0.00040645 -0.000170338 3.16888
0.385 0.015 -0.0336449 0.000390291 -0.000172332 3.19803
0.39 0.015 -0.0339917 0.000373072 -0.000174242 3.22555
0.395 0.015 -0.0343209 0.000354824 -0.000176064 3.25136
0.4 0.015 -0.0346317 0.000335578 -0.000177792 3.2754
0.405 0.015 -0.0349231 0.00031537 -0.000179421 3.29758
0.41 0.015 -0.0351944 0.000294238 -0.000180947 3.31786
0.415 0.015 -0.0354447 0.000272224 -0.000182364 3.33616
0.42 0.015 -0.0356732 0.000249371 -0.00018367 3.35243
0.425 0.015 -0.0358792 0.000225728 -0.00018486 3.36663
0.43 0.015 -0.0360621 0.000201344 -0.000185929 3.37869
0.435 0.015 -0.0362213 0.00017627 -0.000186874 3.38857
0.44 0.015 -0.036356 0.000150562 -0.000187693 3.39625
0.445 0.015 -0.036466 0.000124276 -0.000188381 3.40168
0.45 0.015 -0.0365506 9.7473e-05 -0.000188937 3.40484
0.455 0.015 -0.0366095 7.02132e-05 -0.000189358 3.4057
0.46 0.015 -0.0366424 4.25601e-05 -0.000189641 3.40425
0.465 0.015 -0.0366489 1.45784e-05 -0.000189785 3.40047
0.47 0.015 -0.0366289 -1.36654e-05 -0.000189788 3.39436
0.475 0.015 -0.0365821 -4.2104e-05 -0.00018965 3.3859
0.48 0.015 -0.0365085 -7.06687e-05 -0.000189369 3.37512
0.485 0.015 -0.036408 -9.92903e-05 -0.000188945 3.362
0.49 0.015 -0.0362808 -0.000127899 -0.000188378 3.34658
0.495 0.015 -0.0361267 -0.000156425 -0.000187668 3.32885
0.5 0.015 -0.0359461 -0.000184798 -0.000186815 3.30886
0.505 0.015 -0.0357392 -0.000212948 -0.000185821 3.28662
0.51 0.015 -0.0355061 -0.000240806 -0.000184687 3.26217
0.515 0.015 -0.0352474 -0.000268303 -0.000183415 3.23555
0.52 0.015 -0.0349633 -0.000295373 -0.000182006 3.2068
0.525 0.015 -0.0346544 -0.000321948 -0.000180463 3.17596
0.53 0.015 -0.0343211 -0.000347965 -0.000178788 3.1431
0.535 0.015 -0.0339641 -0.000373361 -0.000176985 3.10826
0.54 0.015 -0.033584 -0.000398075 -0.000175056 3.07151
0.545 0.015 -0.0331815 -0.000422049 -0.000173006 3.0329
0.55 0.015 -0.0327572 -0.000445228 -0.000170838 2.99251
0.555 0.015 -0.0323121 -0.000467559 -0.000168556 2.95041
0.56 0.015 -0.0318469 -0.000488992 -0.000166164 2.90667
0.565 0.015 -0.0313625 -0.00050948 -0.000163667 2.86137
0.57 0.015 -0.0308599 -0.000528981 -0.000161071 2.81459
0.575 0.015 -0.0303398 -0.000547454 -0.000158379 2.7664
0.58 0.015 -0.0298035 -0.000564865 -0.000155598 2.7169
0.585 0.015 -0.0292517 -0.00058118 -0.000152732 2.66617
0.59 0.015 -0.0286857 -0.000596373 -0.000149788 2.6143
0.595 0.015 -0.0281064 -0.000610418 -0.00014677 2.56137
0.6 0.015 -0.0275149 -0.000623296 -0.000143685 2.50748
0.605 0.015 -0.0269124 -0.000634992 -0.000140539 2.45272
0.61 0.015 -0.0262998 -0.000645493 -0.000137337 2.39717
0.615 0.015 -0.0256783 -0.000654792 -0.000134085 2.34094
0.62 0.015 -0.0250491 -0.000662887 -0.00013079 2.28411
0.625 0.015 -0.0244132 -0.000669776 -0.000127458 2.22678
0.63 0.015 -0.0237717 -0.000675467 -0.000124094 2.16903
0.635 0.015 -0.0231258 -0.000679967 -0.000120704 2.11096
0.64 0.015 -0.0224765 -0.000683289 -0.000117295 2.05266
0.645 0.015 -0.0218249 -0.000685449 -0.000113872 1.99421
0.65 0.015 -0.0211721 -0.000686467 -0.000110442 1.9357
0.655 0.015 -0.020519 -0.000686367 -0.000107009 1.87721
0.66 0.015 -0.0198668 -0.000685174 -0.000103579 1.81884
0.665 0.015 -0.0192164 -0.000682919 -0.000100158 1.76065
0.67 0.015 -0.0185687 -0.000679633 -9.67511e-05 1.70273
0.675 0.015 -0.0179248 -0.000675352 -9.33629e-05 1.64516
0.68 0.015 -0.0172854 -0.000670113 -8.99985e-05 1.588
0.685 0.015 -0.0166515 -0.000663954 -8.66627e-05 1.53133
0.69 0.015 -0.0160238 -0.000656917 -8.33598e-05 1.47522
0.695 0.015 -0.0154033 -0.000649045 -8.00943e-05 1.41972
0.7 0.015 -0.0147905 -0.000640381 -7.68702e-05 1.36491
0.705 0.015 -0.0141863 -0.000630972 -7.36912e-05 1.31085
0.71 0.015 -0.0135912 -0.000620863 -7.05611e-05 1.25758
0.715 0.015 -0.013006 -0.0006101 -6.74832e-05 1.20515
0.72 0.015 -0.0124311 -0.000598732 -6.44607e-05 1.15363
0.725 0.015 -0.0118672 -0.000586804 -6.14965e-05 1.10305
0.73 0.015 -0.0113147 -0.000574365 -5.85932e-05 1.05345
0.735 0.015 -0.0107741 -0.000561461 -5.57533e-05 1.00488
0.74 0.015 -0.0102458 -0.000548138 -5.2979e-05 0.957363
0.745 0.015 -0.0097302 -0.000534442 -5.02723e-05 0.910939
0.75 0.015 -0.00922755 -0.000520418 -4.7635e-05 0.865635
0.755 0.015 -0.00873818 -0.00050611 -4.50685e-05 0.821476
0.76 0.015 -0.00826235 -0.00049156 -4.25742e-05 0.778484
0.765 0.015 -0.00780026 -0.000476809 -4.01532e-05 0.736679
0.77 0.015 -0.00735208 -0.000461897 -3.78063e-05 0.696077
0.775 0.015 -0.00691795 -0.000446862 -3.55344e-05 0.656691
0.78 0.015 -0.00649798 -0.000431741 -3.33379e-05 0.618531
0.785 0.015 -0.00609224 -0.000416568 -3.12172e-05 0.581607
0.79 0.015 -0.00570077 -0.000401376 -2.91724e-05 0.545923
0.795 0.015 -0.00532358 -0.000386197 -2.72036e-05 0.511482
0.8 0.015 -0.00496065 -0.000371059 -2.53105e-05 0.478285
0.805 0.015 -0.00461194 -0.000355989 -2.34931e-05 0.44633
0.81 0.015 -0.00427739 -0.000341014 -2.17507e-05 0.415614
0.815 0.015 -0.0039569 -0.000326155 -2.0083e-05 0.386132
0.82 0.015 -0.00365035 -0.000311435 -1.84892e-05 0.357875
0.825 0.015 -0.00335764 -0.000296873 -1.69686e-05 0.330835