Title=" Lid Driven Flow"
VARIABLES="X","Y","U","V","psi","xi"
ZONE T= "BOX", I= 201, J=201, F=POINT
0 0 0 0 0.00151587 0
0.005 0 0 0 0 0
0.01 0 0 0 0 0
0.015 0 0 0 0 161.89
0.02 0 0 0 0 176.128
0.025 0 0 0 0 155.626
0.03 0 0 0 0 133.258
0.035 0 0 0 0 115.763
0.04 0 0 0 0 102.931
0.045 0 0 0 0 93.4149
0.05 0 0 0 0 86.102
0.055 0 0 0 0 80.2584
0.06 0 0 0 0 75.4253
0.065 0 0 0 0 71.3143
0.07 0 0 0 0 67.7382
0.075 0 0 0 0 64.5716
0.08 0 0 0 0 61.727
0.085 0 0 0 0 59.1421
0.09 0 0 0 0 56.7712
0.095 0 0 0 0 54.58
0.1 0 0 0 0 52.5426
0.105 0 0 0 0 50.6388
0.11 0 0 0 0 48.8526
0.115 0 0 0 0 47.1714
0.12 0 0 0 0 45.5847
0.125 0 0 0 0 44.0839
0.13 0 0 0 0 42.6617
0.135 0 0 0 0 41.312
0.14 0 0 0 0 40.0294
0.145 0 0 0 0 38.8091
0.15 0 0 0 0 37.6468
0.155 0 0 0 0 36.5388
0.16 0 0 0 0 35.4815
0.165 0 0 0 0 34.4716
0.17 0 0 0 0 33.5062
0.175 0 0 0 0 32.5826
0.18 0 0 0 0 31.698
0.185 0 0 0 0 30.85
0.19 0 0 0 0 30.0364
0.195 0 0 0 0 29.2548
0.2 0 0 0 0 28.5033
0.205 0 0 0 0 27.7799
0.21 0 0 0 0 27.0827
0.215 0 0 0 0 26.41
0.22 0 0 0 0 25.7601
0.225 0 0 0 0 25.1315
0.23 0 0 0 0 24.5225
0.235 0 0 0 0 23.9319
0.24 0 0 0 0 23.3583
0.245 0 0 0 0 22.8005
0.25 0 0 0 0 22.2573
0.255 0 0 0 0 21.7275
0.26 0 0 0 0 21.2101
0.265 0 0 0 0 20.7043
0.27 0 0 0 0 20.209
0.275 0 0 0 0 19.7234
0.28 0 0 0 0 19.2468
0.285 0 0 0 0 18.7783
0.29 0 0 0 0 18.3175
0.295 0 0 0 0 17.8636
0.3 0 0 0 0 17.4162
0.305 0 0 0 0 16.9746
0.31 0 0 0 0 16.5385
0.315 0 0 0 0 16.1074
0.32 0 0 0 0 15.6811
0.325 0 0 0 0 15.2592
0.33 0 0 0 0 14.8413
0.335 0 0 0 0 14.4275
0.34 0 0 0 0 14.0173
0.345 0 0 0 0 13.6108
0.35 0 0 0 0 13.2077
0.355 0 0 0 0 12.8081
0.36 0 0 0 0 12.4119
0.365 0 0 0 0 12.0191
0.37 0 0 0 0 11.6298
0.375 0 0 0 0 11.2439
0.38 0 0 0 0 10.8617
0.385 0 0 0 0 10.4831
0.39 0 0 0 0 10.1084
0.395 0 0 0 0 9.73772
0.4 0 0 0 0 9.37121
0.405 0 0 0 0 9.00907
0.41 0 0 0 0 8.65151
0.415 0 0 0 0 8.29876
0.42 0 0 0 0 7.95103
0.425 0 0 0 0 7.60858
0.43 0 0 0 0 7.27162
0.435 0 0 0 0 6.94042
0.44 0 0 0 0 6.61522
0.445 0 0 0 0 6.29624
0.45 0 0 0 0 5.98374
0.455 0 0 0 0 5.67795
0.46 0 0 0 0 5.37907
0.465 0 0 0 0 5.08733
0.47 0 0 0 0 4.80293
0.475 0 0 0 0 4.52605
0.48 0 0 0 0 4.25685
0.485 0 0 0 0 3.99549
0.49 0 0 0 0 3.74211
0.495 0 0 0 0 3.49682
0.5 0 0 0 0 3.2597
0.505 0 0 0 0 3.03085
0.51 0 0 0 0 2.8103
0.515 0 0 0 0 2.59808
0.52 0 0 0 0 2.39421
0.525 0 0 0 0 2.19868
0.53 0 0 0 0 2.01144
0.535 0 0 0 0 1.83245
0.54 0 0 0 0 1.66162
0.545 0 0 0 0 1.49887
0.55 0 0 0 0 1.34408
0.555 0 0 0 0 1.19712
0.56 0 0 0 0 1.05785
0.565 0 0 0 0 0.926098
0.57 0 0 0 0 0.801696
0.575 0 0 0 0 0.684456
0.58 0 0 0 0 0.574178
0.585 0 0 0 0 0.470657
0.59 0 0 0 0 0.373674
0.595 0 0 0 0 0.283009
0.6 0 0 0 0 0.198432
0.605 0 0 0 0 0.119713
0.61 0 0 0 0 0.0466147
0.615 0 0 0 0 -0.0210988
0.62 0 0 0 0 -0.0836653
0.625 0 0 0 0 -0.141322
0.63 0 0 0 0 -0.194306
0.635 0 0 0 0 -0.24285
0.64 0 0 0 0 -0.287186
0.645 0 0 0 0 -0.327543
0.65 0 0 0 0 -0.364144
0.655 0 0 0 0 -0.397209
0.66 0 0 0 0 -0.426951
0.665 0 0 0 0 -0.453581
0.67 0 0 0 0 -0.4773
0.675 0 0 0 0 -0.498305
0.68 0 0 0 0 -0.516785
0.685 0 0 0 0 -0.532923
0.69 0 0 0 0 -0.546893
0.695 0 0 0 0 -0.558863
0.7 0 0 0 0 -0.568989
0.705 0 0 0 0 -0.577423
0.71 0 0 0 0 -0.584304
0.715 0 0 0 0 -0.589764
0.72 0 0 0 0 -0.593924
0.725 0 0 0 0 -0.596897
0.73 0 0 0 0 -0.598784
0.735 0 0 0 0 -0.59968
0.74 0 0 0 0 -0.599666
0.745 0 0 0 0 -0.598815
0.75 0 0 0 0 -0.597193
0.755 0 0 0 0 -0.594853
0.76 0 0 0 0 -0.591842
0.765 0 0 0 0 -0.588198
0.77 0 0 0 0 -0.583952
0.775 0 0 0 0 -0.579127
0.78 0 0 0 0 -0.57374
0.785 0 0 0 0 -0.567802
0.79 0 0 0 0 -0.56132
0.795 0 0 0 0 -0.554295
0.8 0 0 0 0 -0.546727
0.805 0 0 0 0 -0.538611
0.81 0 0 0 0 -0.52994
0.815 0 0 0 0 -0.520708
0.82 0 0 0 0 -0.510905
0.825 0 0 0 0 -0.500523
0.83 0 0 0 0 -0.489556
0.835 0 0 0 0 -0.477996
0.84 0 0 0 0 -0.46584
0.845 0 0 0 0 -0.453086
0.85 0 0 0 0 -0.439734
0.855 0 0 0 0 -0.42579
0.86 0 0 0 0 -0.411262
0.865 0 0 0 0 -0.396163
0.87 0 0 0 0 -0.38051
0.875 0 0 0 0 -0.364325
0.88 0 0 0 0 -0.347636
0.885 0 0 0 0 -0.330477
0.89 0 0 0 0 -0.312887
0.895 0 0 0 0 -0.294911
0.9 0 0 0 0 -0.276602
0.905 0 0 0 0 -0.25802
0.91 0 0 0 0 -0.239229
0.915 0 0 0 0 -0.220306
0.92 0 0 0 0 -0.201331
0.925 0 0 0 0 -0.182395
0.93 0 0 0 0 -0.163598
0.935 0 0 0 0 -0.14505
0.94 0 0 0 0 -0.126869
0.945 0 0 0 0 -0.109187
0.95 0 0 0 0 -0.0921466
0.955 0 0 0 0 -0.0759034
0.96 0 0 0 0 -0.0606272
0.965 0 0 0 0 -0.0465028
0.97 0 0 0 0 -0.0337301
0.975 0 0 0 0 -0.0225236
0.98 0 0 0 0 -0.0131091
0.985 0 0 0 0 -0.00571408
0.99 0 0 0 0 -0.000545148
0.995 0 0 0 0 0.0022648
1 0 0 0 0 0.00277748
0 0.005 0 0 0 0
0.005 0.005 0 0 0 0
0.01 0.005 0 0 0 73.726
0.015 0.005 0 0 0 62.0143
0.02 0.005 0 0 0 45.5958
0.025 0.005 0 0 0 33.7885
0.03 0.005 0 0 0 25.9009
0.035 0.005 0 0 0 20.5301
0.04 0.005 0 0 0 16.7216
0.045 0.005 0 0 0 13.9096
0.05 0.005 0 0 0 11.7618
0.055 0.005 0 0 0 10.0773
0.06 0.005 0 0 0 8.72891
0.065 0.005 0 0 0 7.6325
0.07 0.005 0 0 0 6.7301
0.075 0.005 0 0 0 5.98027
0.08 0.005 0 0 0 5.35246
0.085 0.005 0 0 0 4.82359
0.09 0.005 0 0 0 4.37589
0.095 0.005 0 0 0 3.99539
0.1 0.005 0 0 0 3.67102
0.105 0.005 0 0 0 3.39385
0.11 0.005 0 0 0 3.15664
0.115 0.005 0 0 0 2.95346
0.12 0.005 0 0 0 2.77941
0.125 0.005 0 0 0 2.63042
0.13 0.005 0 0 0 2.50309
0.135 0.005 0 0 0 2.39459
0.14 0.005 0 0 0 2.3025
0.145 0.005 0 0 0 2.22479
0.15 0.005 0 0 0 2.15972
0.155 0.005 0 0 0 2.10582
0.16 0.005 0 0 0 2.06181
0.165 0.005 0 0 0 2.0266
0.17 0.005 0 0 0 1.99925
0.175 0.005 0 0 0 1.97893
0.18 0.005 0 0 0 1.96494
0.185 0.005 0 0 0 1.95666
0.19 0.005 0 0 0 1.95353
0.195 0.005 0 0 0 1.95507
0.2 0.005 0 0 0 1.96087
0.205 0.005 0 0 0 1.97053
0.21 0.005 0 0 0 1.98373
0.215 0.005 0 0 0 2.00016
0.22 0.005 0 0 0 2.01955
0.225 0.005 0 0 0 2.04164
0.23 0.005 0 0 0 2.06621
0.235 0.005 0 0 0 2.09306
0.24 0.005 0 0 0 2.12198
0.245 0.005 0 0 0 2.1528
0.25 0.005 0 0 0 2.18535
0.255 0.005 0 0 0 2.21947
0.26 0.005 0 0 0 2.25501
0.265 0.005 0 0 0 2.29182
0.27 0.005 0 0 0 2.32977
0.275 0.005 0 0 0 2.36872
0.28 0.005 0 0 0 2.40854
0.285 0.005 0 0 0 2.4491
0.29 0.005 0 0 0 2.49028
0.295 0.005 0 0 0 2.53196
0.3 0.005 0 0 0 2.57401
0.305 0.005 0 0 0 2.61632
0.31 0.005 0 0 0 2.65877
0.315 0.005 0 0 0 2.70124
0.32 0.005 0 0 0 2.74362
0.325 0.005 0 0 0 2.78579
0.33 0.005 0 0 0 2.82764
0.335 0.005 0 0 0 2.86906
0.34 0.005 0 0 0 2.90993
0.345 0.005 0 0 0 2.95014
0.35 0.005 0 0 0 2.9896
0.355 0.005 0 0 0 3.02818
0.36 0.005 0 0 0 3.06578
0.365 0.005 0 0 0 3.10231
0.37 0.005 0 0 0 3.13764
0.375 0.005 0 0 0 3.1717
0.38 0.005 0 0 0 3.20437
0.385 0.005 0 0 0 3.23557
0.39 0.005 0 0 0 3.2652
0.395 0.005 0 0 0 3.29317
0.4 0.005 0 0 0 3.3194
0.405 0.005 0 0 0 3.3438
0.41 0.005 0 0 0 3.3663
0.415 0.005 0 0 0 3.38683
0.42 0.005 0 0 0 3.4053
0.425 0.005 0 0 0 3.42167
0.43 0.005 0 0 0 3.43586
0.435 0.005 0 0 0 3.44782
0.44 0.005 0 0 0 3.45751
0.445 0.005 0 0 0 3.46487
0.45 0.005 0 0 0 3.46987
0.455 0.005 0 0 0 3.47248
0.46 0.005 0 0 0 3.47266
0.465 0.005 0 0 0 3.4704
0.47 0.005 0 0 0 3.46568
0.475 0.005 0 0 0 3.45848
0.48 0.005 0 0 0 3.44882
0.485 0.005 0 0 0 3.43668
0.49 0.005 0 0 0 3.42208
0.495 0.005 0 0 0 3.40504
0.5 0.005 0 0 0 3.38557
0.505 0.005 0 0 0 3.3637
0.51 0.005 0 0 0 3.33946
0.515 0.005 0 0 0 3.31289
0.52 0.005 0 0 0 3.28405
0.525 0.005 0 0 0 3.25297
0.53 0.005 0 0 0 3.21971
0.535 0.005 0 0 0 3.18434
0.54 0.005 0 0 0 3.14691
0.545 0.005 0 0 0 3.1075
0.55 0.005 0 0 0 3.06618
0.555 0.005 0 0 0 3.02303
0.56 0.005 0 0 0 2.97813
0.565 0.005 0 0 0 2.93157
0.57 0.005 0 0 0 2.88343
0.575 0.005 0 0 0 2.83381
0.58 0.005 0 0 0 2.7828
0.585 0.005 0 0 0 2.73049
0.59 0.005 0 0 0 2.67699
0.595 0.005 0 0 0 2.62238
0.6 0.005 0 0 0 2.56678
0.605 0.005 0 0 0 2.51028
0.61 0.005 0 0 0 2.45298
0.615 0.005 0 0 0 2.39499
0.62 0.005 0 0 0 2.33639
0.625 0.005 0 0 0 2.2773
0.63 0.005 0 0 0 2.21781
0.635 0.005 0 0 0 2.15802
0.64 0.005 0 0 0 2.09803
0.645 0.005 0 0 0 2.03792
0.65 0.005 0 0 0 1.97779
0.655 0.005 0 0 0 1.91773
0.66 0.005 0 0 0 1.85783
0.665 0.005 0 0 0 1.79817
0.67 0.005 0 0 0 1.73882
0.675 0.005 0 0 0 1.67988
0.68 0.005 0 0 0 1.6214
0.685 0.005 0 0 0 1.56347
0.69 0.005 0 0 0 1.50616
0.695 0.005 0 0 0 1.44951
0.7 0.005 0 0 0 1.39361
0.705 0.005 0 0 0 1.33849
0.71 0.005 0 0 0 1.28422
0.715 0.005 0 0 0 1.23085
0.72 0.005 0 0 0 1.17841
0.725 0.005 0 0 0 1.12695
0.73 0.005 0 0 0 1.07652
0.735 0.005 0 0 0 1.02714
0.74 0.005 0 0 0 0.978843
0.745 0.005 0 0 0 0.93166
0.75 0.005 0 0 0 0.885616
0.755 0.005 0 0 0 0.84073
0.76 0.005 0 0 0 0.797021
0.765 0.005 0 0 0 0.754505
0.77 0.005 0 0 0 0.713194
0.775 0.005 0 0 0 0.673097
0.78 0.005 0 0 0 0.634221
0.785 0.005 0 0 0 0.596573
0.79 0.005 0 0 0 0.560153
0.795 0.005 0 0 0 0.524964
0.8 0.005 0 0 0 0.491002
0.805 0.005 0 0 0 0.458265
0.81 0.005 0 0 0 0.426748
0.815 0.005 0 0 0 0.396445
0.82 0.005 0 0 0 0.367347
0.825 0.005 0 0 0 0.339445
0.83 0.005 0 0 0 0.31273
0.835 0.005 0 0 0 0.28719
0.84 0.005 0 0 0 0.262814
0.845 0.005 0 0 0 0.239587
0.85 0.005 0 0 0 0.217498
0.855 0.005 0 0 0 0.196531
0.86 0.005 0 0 0 0.176673
0.865 0.005 0 0 0 0.15791
0.87 0.005 0 0 0 0.140225
0.875 0.005 0 0 0 0.123605
0.88 0.005 0 0 0 0.108034
0.885 0.005 0 0 0 0.0934979
0.89 0.005 0 0 0 0.0799804
0.895 0.005 0 0 0 0.0674673
0.9 0.005 0 0 0 0.0559438
0.905 0.005 0 0 0 0.0453951
0.91 0.005 0 0 0 0.0358067
0.915 0.005 0 0 0 0.0271643
0.92 0.005 0 0 0 0.0194533
0.925 0.005 0 0 0 0.012659
0.93 0.005 0 0 0 0.00676642
0.935 0.005 0 0 0 0.00175974
0.94 0.005 0 0 0 -0.00237802
0.945 0.005 0 0 0 -0.00566575
0.95 0.005 0 0 0 -0.00812518
0.955 0.005 0 0 0 -0.00978227
0.96 0.005 0 0 0 -0.0106693
0.965 0.005 0 0 0 -0.0108275
0.97 0.005 0 0 0 -0.0103119
0.975 0.005 0 0 0 -0.00919716
0.98 0.005 0 0 0 -0.0075877
0.985 0.005 0 0 0 -0.0056326
0.99 0.005 0 0 0 -0.00354729
0.995 0.005 0 0 0 -0.00164068
1 0.005 0 0 0 -0.000325469
0 0.01 0 0 -0.000325469 0
0.005 0.01 0 0 0 -326.274
0.01 0.01 -0.179985 0.0775179 -0.000921574 -44.4507
0.015 0.01 -0.184613 -0.0351627 -0.000775179 9.47765
0.02 0.01 -0.155929 -0.0352823 -0.000569948 19.0812
0.025 0.01 -0.127008 -0.0246186 -0.000422356 18.9747
0.03 0.01 -0.103699 -0.016573 -0.000323762 16.8369
0.035 0.01 -0.085743 -0.0114742 -0.000256626 14.5483
0.04 0.01 -0.0719048 -0.00827561 -0.00020902 12.5386
0.045 0.01 -0.0610893 -0.00619966 -0.00017387 10.8583
0.05 0.01 -0.0524944 -0.00479031 -0.000147023 9.46751
0.055 0.01 -0.0455575 -0.00379117 -0.000125967 8.31374
0.06 0.01 -0.0398844 -0.00305603 -0.000109111 7.35087
0.065 0.01 -0.0351939 -0.0024985 -9.54061e-05 6.54209
0.07 0.01 -0.0312812 -0.00206527 -8.41261e-05 5.85869
0.075 0.01 -0.0279937 -0.00172204 -7.47532e-05 5.27823
0.08 0.01 -0.0252151 -0.00144583 -6.69056e-05 4.78308
0.085 0.01 -0.0228555 -0.0012207 -6.02947e-05 4.35919
0.09 0.01 -0.0208438 -0.00103523 -5.46984e-05 3.99527
0.095 0.01 -0.0191236 -0.000881064 -4.99422e-05 3.68213
0.1 0.01 -0.0176492 -0.000751905 -4.58876e-05 3.41226
0.105 0.01 -0.0163832 -0.000642951 -4.2423e-05 3.17942
0.11 0.01 -0.0152952 -0.000550471 -3.94579e-05 2.97844
0.115 0.01 -0.0143597 -0.000471529 -3.69181e-05 2.80499
0.12 0.01 -0.0135557 -0.000403788 -3.47424e-05 2.65542
0.125 0.01 -0.0128655 -0.000345373 -3.288e-05 2.52664
0.13 0.01 -0.0122743 -0.000294764 -3.12885e-05 2.41605
0.135 0.01 -0.0117694 -0.000250723 -2.99322e-05 2.3214
0.14 0.01 -0.0113403 -0.000212234 -2.87811e-05 2.2408
0.145 0.01 -0.0109776 -0.000178457 -2.78097e-05 2.1726
0.15 0.01 -0.0106738 -0.000148698 -2.69964e-05 2.11539
0.155 0.01 -0.010422 -0.000122376 -2.63226e-05 2.06795
0.16 0.01 -0.0102166 -9.90081e-05 -2.57725e-05 2.02923
0.165 0.01 -0.0100524 -7.81864e-05 -2.53324e-05 1.99829
0.17 0.01 -0.00992519 -5.95686e-05 -2.49905e-05 1.97435
0.175 0.01 -0.00983116 -4.28653e-05 -2.47365e-05 1.9567
0.18 0.01 -0.00976701 -2.78313e-05 -2.45617e-05 1.94472
0.185 0.01 -0.00972984 -1.42585e-05 -2.44581e-05 1.93786
0.19 0.01 -0.00971708 -1.97007e-06 -2.4419e-05 1.93565
0.195 0.01 -0.00972649 9.18487e-06 -2.44383e-05 1.93765
0.2 0.01 -0.00975604 1.93349e-05 -2.45108e-05 1.94349
0.205 0.01 -0.00980396 2.85896e-05 -2.46316e-05 1.95282
0.21 0.01 -0.00986862 3.70429e-05 -2.47966e-05 1.96534
0.215 0.01 -0.00994859 4.47748e-05 -2.50019e-05 1.98076
0.22 0.01 -0.0100426 5.18535e-05 -2.52443e-05 1.99884
0.225 0.01 -0.0101493 5.83376e-05 -2.55204e-05 2.01933
0.23 0.01 -0.0102678 6.42767e-05 -2.58276e-05 2.04204
0.235 0.01 -0.010397 6.97132e-05 -2.61632e-05 2.06677
0.24 0.01 -0.0105359 7.46831e-05 -2.65247e-05 2.09332
0.245 0.01 -0.0106837 7.92169e-05 -2.691e-05 2.12154
0.25 0.01 -0.0108396 8.33406e-05 -2.73169e-05 2.15126
0.255 0.01 -0.0110027 8.70759e-05 -2.77434e-05 2.18233
0.26 0.01 -0.0111724 9.04411e-05 -2.81876e-05 2.2146
0.265 0.01 -0.011348 9.34518e-05 -2.86478e-05 2.24794
0.27 0.01 -0.0115287 9.61206e-05 -2.91222e-05 2.28222
0.275 0.01 -0.011714 9.84585e-05 -2.9609e-05 2.3173
0.28 0.01 -0.0119031 0.000100474 -3.01068e-05 2.35306
0.285 0.01 -0.0120955 0.000102175 -3.06138e-05 2.38939
0.29 0.01 -0.0122905 0.000103567 -3.11286e-05 2.42616
0.295 0.01 -0.0124876 0.000104656 -3.16496e-05 2.46326
0.3 0.01 -0.0126862 0.000105445 -3.21752e-05 2.50057
0.305 0.01 -0.0128856 0.000105938 -3.27041e-05 2.53799
0.31 0.01 -0.0130854 0.000106139 -3.32347e-05 2.57541
0.315 0.01 -0.013285 0.00010605 -3.37656e-05 2.61272
0.32 0.01 -0.0134838 0.000105673 -3.42954e-05 2.64981
0.325 0.01 -0.0136813 0.000105012 -3.48225e-05 2.68658
0.33 0.01 -0.013877 0.000104069 -3.53456e-05 2.72292
0.335 0.01 -0.0140702 0.000102845 -3.58634e-05 2.75874
0.34 0.01 -0.0142605 0.000101345 -3.63743e-05 2.79394
0.345 0.01 -0.0144474 9.95702e-05 -3.6877e-05 2.82841
0.35 0.01 -0.0146303 9.75251e-05 -3.73702e-05 2.86206
0.355 0.01 -0.0148087 9.52132e-05 -3.78524e-05 2.8948
0.36 0.01 -0.0149822 9.26386e-05 -3.83225e-05 2.92654
0.365 0.01 -0.0151502 8.9806e-05 -3.8779e-05 2.95718
0.37 0.01 -0.0153123 8.67205e-05 -3.92208e-05 2.98663
0.375 0.01 -0.015468 8.33879e-05 -3.96465e-05 3.01482
0.38 0.01 -0.0156169 7.98145e-05 -4.00549e-05 3.04165
0.385 0.01 -0.0157586 7.60072e-05 -4.04449e-05 3.06705
0.39 0.01 -0.0158925 7.19736e-05 -4.08153e-05 3.09095
0.395 0.01 -0.0160183 6.77217e-05 -4.11649e-05 3.11327
0.4 0.01 -0.0161357 6.32602e-05 -4.14928e-05 3.13393
0.405 0.01 -0.0162441 5.85987e-05 -4.17979e-05 3.15288
0.41 0.01 -0.0163434 5.37469e-05 -4.20791e-05 3.17005
0.415 0.01 -0.0164331 4.87155e-05 -4.23357e-05 3.18539
0.42 0.01 -0.016513 4.35157e-05 -4.25666e-05 3.19883
0.425 0.01 -0.0165827 3.81592e-05 -4.27712e-05 3.21033
0.43 0.01 -0.0166421 3.26581e-05 -4.29486e-05 3.21984
0.435 0.01 -0.0166908 2.70253e-05 -4.30981e-05 3.22733
0.44 0.01 -0.0167286 2.1274e-05 -4.32192e-05 3.23275
0.445 0.01 -0.0167553 1.54178e-05 -4.33112e-05 3.23607
0.45 0.01 -0.0167709 9.47078e-06 -4.33738e-05 3.23727
0.455 0.01 -0.0167751 3.44734e-06 -4.34063e-05 3.23633
0.46 0.01 -0.0167678 -2.63784e-06 -4.34086e-05 3.23323
0.465 0.01 -0.016749 -8.7698e-06 -4.33804e-05 3.22796
0.47 0.01 -0.0167186 -1.49334e-05 -4.33214e-05 3.22052
0.475 0.01 -0.0166766 -2.11134e-05 -4.32315e-05 3.21089
0.48 0.01 -0.0166229 -2.72944e-05 -4.31106e-05 3.19909
0.485 0.01 -0.0165576 -3.34609e-05 -4.29589e-05 3.18513
0.49 0.01 -0.0164809 -3.95977e-05 -4.27765e-05 3.16901
0.495 0.01 -0.0163926 -4.56895e-05 -4.25634e-05 3.15077
0.5 0.01 -0.016293 -5.17211e-05 -4.232e-05 3.13042
0.505 0.01 -0.0161822 -5.76776e-05 -4.20466e-05 3.108
0.51 0.01 -0.0160604 -6.35444e-05 -4.17437e-05 3.08354
0.515 0.01 -0.0159278 -6.93072e-05 -4.14116e-05 3.05707
0.52 0.01 -0.0157846 -7.49521e-05 -4.1051e-05 3.02865
0.525 0.01 -0.015631 -8.04656e-05 -4.06625e-05 2.99831
0.53 0.01 -0.0154673 -8.58348e-05 -4.02468e-05 2.96612
0.535 0.01 -0.0152938 -9.10472e-05 -3.98046e-05 2.93212
0.54 0.01 -0.0151108 -9.6091e-05 -3.93368e-05 2.89638
0.545 0.01 -0.0149186 -0.000100955 -3.88441e-05 2.85896
0.55 0.01 -0.0147176 -0.000105629 -3.83276e-05 2.81993
0.555 0.01 -0.0145082 -0.000110103 -3.77883e-05 2.77936
0.56 0.01 -0.0142907 -0.000114368 -3.7227e-05 2.73732
0.565 0.01 -0.0140656 -0.000118416 -3.6645e-05 2.69388
0.57 0.01 -0.0138333 -0.000122239 -3.60433e-05 2.64913
0.575 0.01 -0.0135941 -0.000125832 -3.5423e-05 2.60313
0.58 0.01 -0.0133486 -0.000129188 -3.47854e-05 2.55598
0.585 0.01 -0.0130972 -0.000132303 -3.41315e-05 2.50776
0.59 0.01 -0.0128403 -0.000135173 -3.34627e-05 2.45855
0.595 0.01 -0.0125783 -0.000137794 -3.27802e-05 2.40844
0.6 0.01 -0.0123119 -0.000140165 -3.20851e-05 2.3575
0.605 0.01 -0.0120413 -0.000142285 -3.13789e-05 2.30583
0.61 0.01 -0.0117672 -0.000144153 -3.06626e-05 2.25352
0.615 0.01 -0.0114899 -0.00014577 -2.99377e-05 2.20064
0.62 0.01 -0.0112099 -0.000147137 -2.92052e-05 2.14729
0.625 0.01 -0.0109277 -0.000148256 -2.84666e-05 2.09355
0.63 0.01 -0.0106437 -0.00014913 -2.7723e-05 2.0395
0.635 0.01 -0.0103584 -0.000149763 -2.69756e-05 1.98522
0.64 0.01 -0.0100722 -0.000150159 -2.62256e-05 1.9308
0.645 0.01 -0.00978564 -0.000150324 -2.54743e-05 1.87631
0.65 0.01 -0.00949902 -0.000150262 -2.47227e-05 1.82184
0.655 0.01 -0.00921279 -0.00014998 -2.39719e-05 1.76745
0.66 0.01 -0.00892736 -0.000149485 -2.32231e-05 1.71322
0.665 0.01 -0.00864311 -0.000148784 -2.24773e-05 1.65923
0.67 0.01 -0.00836042 -0.000147885 -2.17355e-05 1.60553
0.675 0.01 -0.00807964 -0.000146795 -2.09987e-05 1.55221
0.68 0.01 -0.00780112 -0.000145524 -2.02678e-05 1.49931
0.685 0.01 -0.00752518 -0.000144079 -1.95436e-05 1.4469
0.69 0.01 -0.00725215 -0.00014247 -1.88271e-05 1.39503
0.695 0.01 -0.00698231 -0.000140706 -1.81191e-05 1.34377
0.7 0.01 -0.00671595 -0.000138795 -1.74203e-05 1.29316
0.705 0.01 -0.00645332 -0.000136748 -1.67313e-05 1.24325
0.71 0.01 -0.00619467 -0.000134573 -1.60529e-05 1.19409
0.715 0.01 -0.00594024 -0.00013228 -1.53857e-05 1.14571
0.72 0.01 -0.00569022 -0.000129877 -1.47302e-05 1.09816
0.725 0.01 -0.00544483 -0.000127375 -1.4087e-05 1.05148
0.73 0.01 -0.00520423 -0.000124782 -1.34566e-05 1.00569
0.735 0.01 -0.00496858 -0.000122106 -1.28393e-05 0.960833
0.74 0.01 -0.00473804 -0.000119357 -1.22356e-05 0.916926
0.745 0.01 -0.00451273 -0.000116543 -1.16458e-05 0.873999
0.75 0.01 -0.00429278 -0.000113671 -1.10703e-05 0.832072
0.755 0.01 -0.00407827 -0.000110751 -1.05092e-05 0.791165
0.76 0.01 -0.0038693 -0.000107788 -9.96283e-06 0.751293
0.765 0.01 -0.00366594 -0.000104791 -9.43137e-06 0.712473
0.77 0.01 -0.00346826 -0.000101766 -8.91497e-06 0.674714
0.775 0.01 -0.00327629 -9.87201e-05 -8.41375e-06 0.638028
0.78 0.01 -0.00309007 -9.56591e-05 -7.92781e-06 0.60242
0.785 0.01 -0.00290964 -9.25888e-05 -7.45719e-06 0.567897
0.79 0.01 -0.002735 -8.95148e-05 -7.00195e-06 0.534461
0.795 0.01 -0.00256616 -8.64421e-05 -6.56207e-06 0.502116
0.8 0.01 -0.00240312 -8.33754e-05 -6.13754e-06 0.47086
0.805 0.01 -0.00224587 -8.0319e-05 -5.72833e-06 0.440692
0.81 0.01 -0.00209438 -7.7277e-05 -5.33436e-06 0.411609
0.815 0.01 -0.00194862 -7.42528e-05 -4.95557e-06 0.383607
0.82 0.01 -0.00180857 -7.12499e-05 -4.59184e-06 0.356681
0.825 0.01 -0.00167419 -6.8271e-05 -4.24307e-06 0.330823
0.83 0.01 -0.00154542 -6.5319e-05 -3.90913e-06 0.306026
0.835 0.01 -0.00142223 -6.23959e-05 -3.58988e-06 0.282283
0.84 0.01 -0.00130455 -5.95039e-05 -3.28517e-06 0.259583
0.845 0.01 -0.00119234 -5.66446e-05 -2.99483e-06 0.237916
0.85 0.01 -0.00108552 -5.38194e-05 -2.71871e-06 0.217273
0.855 0.01 -0.000984045 -5.10295e-05 -2.45663e-06 0.197642
0.86 0.01 -0.000887843 -4.82758e-05 -2.20841e-06 0.179012
0.865 0.01 -0.000796848 -4.55589e-05 -1.97386e-06 0.16137
0.87 0.01 -0.000710995 -4.28793e-05 -1.7528e-06 0.144705
0.875 0.01 -0.000630213 -4.02373e-05 -1.54505e-06 0.129005
0.88 0.01 -0.000554433 -3.7633e-05 -1.35042e-06 0.114257
0.885 0.01 -0.000483588 -3.50662e-05 -1.16871e-06 0.100448
0.89 0.01 -0.000417606 -3.25368e-05 -9.99742e-07 0.0875649
0.895 0.01 -0.000356419 -3.00445e-05 -8.43329e-07 0.0755956
0.9 0.01 -0.000299956 -2.7589e-05 -6.99284e-07 0.0645268
0.905 0.01 -0.000248148 -2.517e-05 -5.67426e-07 0.0543451
0.91 0.01 -0.000200926 -2.27872e-05 -4.47572e-07 0.0450372
0.915 0.01 -0.000158218 -2.04406e-05 -3.39542e-07 0.0365893
0.92 0.01 -0.000119954 -1.81305e-05 -2.43155e-07 0.0289872
0.925 0.01 -8.60592e-05 -1.58575e-05 -1.58227e-07 0.022216
0.93 0.01 -5.64571e-05 -1.36231e-05 -8.4571e-08 0.0162598
0.935 0.01 -3.10656e-05 -1.14296e-05 -2.19884e-08 0.0111014
0.94 0.01 -9.7953e-06 -9.28102e-06 2.97328e-08 0.00672151
0.945 0.01 7.45446e-06 -7.18319e-06 7.08285e-08 0.00309842
0.95 0.01 2.08e-05 -5.14499e-06 1.0157e-07 0.000206602
0.955 0.01 3.03799e-05 -3.17955e-06 1.22283e-07 -0.00198442
0.96 0.01 3.63644e-05 -1.30611e-06 1.3337e-07 -0.00351198
0.965 0.01 3.89682e-05 4.47075e-07 1.35347e-07 -0.00442268
0.97 0.01 3.8468e-05 2.03828e-06 1.28901e-07 -0.00477564
0.975 0.01 3.52282e-05 3.40551e-06 1.14966e-07 -0.00464675
0.98 0.01 2.97354e-05 4.45586e-06 9.48472e-08 -0.00413364
0.985 0.01 2.26457e-05 5.05061e-06 7.04079e-08 -0.00336061
0.99 0.01 1.48429e-05 4.98994e-06 4.43413e-08 -0.00247924
0.995 0.01 7.49406e-06 4.02729e-06 2.05084e-08 -0.00165268
1 0.01 2.04673e-06 2.05084e-06 4.06829e-09 -0.000988108
0 0.015 0 0 -0.00163738 0
0.005 0.015 0 0 0 -256.012
0.01 0.015 -0.152712 0.184613 -0.00179985 -79.3204
0.015 0.015 -0.205856 -0.0240567 -0.00184613 -16.6589
0.02 0.015 -0.204017 -0.0576052 -0.00155929 2.36542
0.025 0.015 -0.184011 -0.05223 -0.00127008 8.0307
0.03 0.015 -0.160763 -0.0412652 -0.00103699 9.38882
0.035 0.015 -0.13925 -0.0317939 -0.00085743 9.2828
0.04 0.015 -0.120706 -0.0246537 -0.000719048 8.6894
0.045 0.015 -0.105099 -0.0194104 -0.000610893 7.96584
0.05 0.015 -0.0920406 -0.0155318 -0.000524944 7.24582
0.055 0.015 -0.0811019 -0.0126099 -0.000455575 6.5776
0.06 0.015 -0.0719029 -0.0103636 -0.000398844 5.97561
0.065 0.015 -0.0641308 -0.00860313 -0.000351939 5.44081
0.07 0.015 -0.0575344 -0.00720019 -0.000312812 4.96897
0.075 0.015 -0.051913 -0.00606607 -0.000279937 4.55414
0.08 0.015 -0.0471054 -0.00513818 -0.000252151 4.19012
0.085 0.015 -0.0429813 -0.00437123 -0.000228554 3.871
0.09 0.015 -0.0394351 -0.00373178 -0.000208438 3.59146
0.095 0.015 -0.0363797 -0.00319461 -0.000191236 3.34674
0.1 0.015 -0.0337437 -0.00274036 -0.000176491 3.13265
0.105 0.015 -0.0314675 -0.00235394 -0.000163831 2.94553
0.11 0.015 -0.0295014 -0.00202345 -0.000152951 2.78218
0.115 0.015 -0.0278037 -0.00173938 -0.000143596 2.63982
0.12 0.015 -0.026339 -0.00149408 -0.000135556 2.51602
0.125 0.015 -0.0250776 -0.00128133 -0.000128655 2.40867
0.13 0.015 -0.0239942 -0.00109603 -0.000122742 2.31592
0.135 0.015 -0.023067 -0.000933986 -0.000117694 2.23615
0.14 0.015 -0.0222775 -0.000791738 -0.000113402 2.16796
0.145 0.015 -0.0216097 -0.000666397 -0.000109776 2.11011
0.15 0.015 -0.0210499 -0.000555552 -0.000106737 2.06152
0.155 0.015 -0.0205862 -0.000457183 -0.00010422 2.02124
0.16 0.015 -0.0202083 -0.000369586 -0.000102165 1.98843
0.165 0.015 -0.0199071 -0.000291325 -0.000100523 1.96234
0.17 0.015 -0.0196748 -0.000221183 -9.92514e-05 1.94233
0.175 0.015 -0.0195045 -0.000158127 -9.83111e-05 1.92781
0.18 0.015 -0.0193902 -0.000101278 -9.76697e-05 1.91826
0.185 0.015 -0.0193266 -4.98858e-05 -9.7298e-05 1.91322
0.19 0.015 -0.0193088 -3.31007e-06 -9.71705e-05 1.91228
0.195 0.015 -0.0193328 3.89968e-05 -9.72645e-05 1.91508
0.2 0.015 -0.0193947 7.75037e-05 -9.75601e-05 1.92127
0.205 0.015 -0.0194911 0.000112612 -9.80393e-05 1.93055
0.21 0.015 -0.0196192 0.000144667 -9.8686e-05 1.94265
0.215 0.015 -0.019776 0.000173962 -9.94857e-05 1.95732
0.22 0.015 -0.0199592 0.000200752 -0.000100425 1.97433
0.225 0.015 -0.0201665 0.000225252 -0.000101493 1.99347
0.23 0.015 -0.0203957 0.000247649 -0.000102678 2.01453
0.235 0.015 -0.0206449 0.0002681 -0.000103969 2.03735
0.24 0.015 -0.0209123 0.000286741 -0.000105359 2.06175
0.245 0.015 -0.0211962 0.000303687 -0.000106837 2.08757
0.25 0.015 -0.0214951 0.000319037 -0.000108396 2.11466
0.255 0.015 -0.0218074 0.000332873 -0.000110027 2.14288
0.26 0.015 -0.0221317 0.000345267 -0.000111724 2.17209
0.265 0.015 -0.0224667 0.000356278 -0.00011348 2.20215
0.27 0.015 -0.0228109 0.000365956 -0.000115287 2.23296
0.275 0.015 -0.0231632 0.000374344 -0.00011714 2.26438
0.28 0.015 -0.0235223 0.000381479 -0.000119031 2.29629
0.285 0.015 -0.023887 0.000387389 -0.000120955 2.32859
0.29 0.015 -0.0242562 0.000392101 -0.000122905 2.36117
0.295 0.015 -0.0246286 0.000395637 -0.000124876 2.39391
0.3 0.015 -0.0250032 0.000398015 -0.000126862 2.42671
0.305 0.015 -0.0253789 0.000399252 -0.000128857 2.45948
0.31 0.015 -0.0257545 0.000399362 -0.000130855 2.4921
0.315 0.015 -0.026129 0.00039836 -0.000132851 2.52448
0.32 0.015 -0.0265014 0.000396257 -0.000134839 2.55653
0.325 0.015 -0.0268706 0.000393067 -0.000136814 2.58815
0.33 0.015 -0.0272355 0.000388802 -0.00013877 2.61925
0.335 0.015 -0.0275952 0.000383474 -0.000140703 2.64974
0.34 0.015 -0.0279486 0.000377099 -0.000142606 2.67952
0.345 0.015 -0.0282948 0.000369689 -0.000144474 2.70852
0.35 0.015 -0.0286328 0.000361262 -0.000146303 2.73665
0.355 0.015 -0.0289617 0.000351834 -0.000148088 2.76383
0.36 0.015 -0.0292805 0.000341425 -0.000149823 2.78998
0.365 0.015 -0.0295883 0.000330054 -0.000151503 2.81503
0.37 0.015 -0.0298843 0.000317745 -0.000153124 2.83889
0.375 0.015 -0.0301676 0.000304523 -0.000154681 2.86151
0.38 0.015 -0.0304374 0.000290412 -0.00015617 2.8828
0.385 0.015 -0.0306929 0.000275443 -0.000157587 2.90272
0.39 0.015 -0.0309333 0.000259647 -0.000158926 2.92119
0.395 0.015 -0.0311578 0.000243055 -0.000160184 2.93815
0.4 0.015 -0.0313658 0.000225704 -0.000161358 2.95356
0.405 0.015 -0.0315566 0.00020763 -0.000162443 2.96736
0.41 0.015 -0.0317296 0.000188874 -0.000163435 2.97951
0.415 0.015 -0.0318842 0.000169476 -0.000164333 2.98995
0.42 0.015 -0.0320198 0.00014948 -0.000165131 2.99866
0.425 0.015 -0.032136 0.000128931 -0.000165829 3.00559
0.43 0.015 -0.0322322 0.000107877 -0.000166422 3.01071
0.435 0.015 -0.0323081 8.63661e-05 -0.000166909 3.014
0.44 0.015 -0.0323633 6.4449e-05 -0.000167287 3.01543
0.445 0.015 -0.0323975 4.21774e-05 -0.000167555 3.01499
0.45 0.015 -0.0324104 1.96042e-05 -0.000167711 3.01265
0.455 0.015 -0.0324018 -3.21642e-06 -0.000167753 3.00842
0.46 0.015 -0.0323716 -2.62296e-05 -0.00016768 3.00227
0.465 0.015 -0.0323195 -4.93795e-05 -0.000167492 2.99422
0.47 0.015 -0.0322456 -7.26101e-05 -0.000167188 2.98426
0.475 0.015 -0.0321499 -9.58647e-05 -0.000166767 2.9724
0.48 0.015 -0.0320323 -0.000119087 -0.000166231 2.95865
0.485 0.015 -0.0318931 -0.00014222 -0.000165578 2.94304
0.49 0.015 -0.0317322 -0.000165207 -0.00016481 2.92557
0.495 0.015 -0.03155 -0.000187993 -0.000163928 2.90627
0.5 0.015 -0.0313466 -0.000210523 -0.000162932 2.88517
0.505 0.015 -0.0311224 -0.000232743 -0.000161824 2.8623
0.51 0.015 -0.0308777 -0.000254599 -0.000160606 2.83769
0.515 0.015 -0.0306128 -0.00027604 -0.00015928 2.8114
0.52 0.015 -0.0303284 -0.000297016 -0.000157847 2.78344
0.525 0.015 -0.0300247 -0.000317479 -0.000156311 2.75388
0.53 0.015 -0.0297023 -0.000337382 -0.000154674 2.72277
0.535 0.015 -0.0293619 -0.000356681 -0.000152939 2.69014
0.54 0.015 -0.0290039 -0.000375334 -0.000151109 2.65607
0.545 0.015 -0.0286291 -0.000393301 -0.000149188 2.6206
0.55 0.015 -0.028238 -0.000410545 -0.000147178 2.5838
0.555 0.015 -0.0278315 -0.000427033 -0.000145084 2.54572
0.56 0.015 -0.0274102 -0.000442732 -0.000142909 2.50643
0.565 0.015 -0.0269749 -0.000457613 -0.000140658 2.466
0.57 0.015 -0.0265264 -0.000471653 -0.000138334 2.4245
0.575 0.015 -0.0260654 -0.000484827 -0.000135943 2.38198
0.58 0.015 -0.0255928 -0.000497116 -0.000133488 2.33853
0.585 0.015 -0.0251094 -0.000508506 -0.000130973 2.29422
0.59 0.015 -0.0246161 -0.000518981 -0.000128404 2.2491
0.595 0.015 -0.0241137 -0.000528533 -0.000125785 2.20327
0.6 0.015 -0.0236031 -0.000537156 -0.00012312 2.15678
0.605 0.015 -0.0230851 -0.000544845 -0.000120415 2.10971
0.61 0.015 -0.0225606 -0.0005516 -0.000117673 2.06214
0.615 0.015 -0.0220305 -0.000557425 -0.0001149 2.01413
0.62 0.015 -0.0214956 -0.000562324 -0.0001121 1.96576
0.625 0.015 -0.0209568 -0.000566306 -0.000109278 1.91709
0.63 0.015 -0.0204149 -0.000569383 -0.000106438 1.8682
0.635 0.015 -0.0198707 -0.000571569 -0.000103585 1.81916
0.64 0.015 -0.0193251 -0.000572879 -0.000100723 1.77003
0.645 0.015 -0.0187789 -0.000573333 -9.78574e-05 1.72087
0.65 0.015 -0.0182328 -0.000572951 -9.49912e-05 1.67176
0.655 0.015 -0.0176875 -0.000571758 -9.21289e-05 1.62275
0.66 0.015 -0.0171439 -0.000569777 -8.92745e-05 1.57391
0.665 0.015 -0.0166027 -0.000567035 -8.6432e-05 1.5253
0.67 0.015 -0.0160644 -0.000563561 -8.3605e-05 1.47696
0.675 0.015 -0.0155299 -0.000559384 -8.07972e-05 1.42896
0.68 0.015 -0.0149997 -0.000554535 -7.8012e-05 1.38135
0.685 0.015 -0.0144744 -0.000549045 -7.52526e-05 1.33418
0.69 0.015 -0.0139546 -0.000542947 -7.25222e-05 1.2875
0.695 0.015 -0.0134409 -0.000536274 -6.98238e-05 1.24135
0.7 0.015 -0.0129337 -0.000529059 -6.71601e-05 1.19577
0.705 0.015 -0.0124336 -0.000521337 -6.45338e-05 1.15081
0.71 0.015 -0.0119409 -0.00051314 -6.19473e-05 1.1065
0.715 0.015 -0.0114563 -0.000504504 -5.94029e-05 1.06289
0.72 0.015 -0.0109799 -0.000495461 -5.69027e-05 1.01999
0.725 0.015 -0.0105122 -0.000486046 -5.44487e-05 0.977854
0.73 0.015 -0.0100535 -0.000476289 -5.20427e-05 0.936496
0.735 0.015 -0.00960416 -0.000466225 -4.96862e-05 0.895947
0.74 0.015 -0.00916438 -0.000455885 -4.73808e-05 0.85623
0.745 0.015 -0.00873445 -0.000445298 -4.51277e-05 0.817366
0.75 0.015 -0.00831456 -0.000434495 -4.29281e-05 0.779375
0.755 0.015 -0.00790492 -0.000423505 -4.0783e-05 0.742274
0.76 0.015 -0.00750568 -0.000412354 -3.86933e-05 0.706077
0.765 0.015 -0.00711699 -0.000401071 -3.66597e-05 0.670798
0.77 0.015 -0.00673897 -0.000389678 -3.46828e-05 0.636448
0.775 0.015 -0.0063717 -0.000378202 -3.2763e-05 0.603036
0.78 0.015 -0.00601526 -0.000366664 -3.09009e-05 0.570569
0.785 0.015 -0.00566971 -0.000355086 -2.90965e-05 0.539053
0.79 0.015 -0.00533507 -0.000343488 -2.73501e-05 0.508492
0.795 0.015 -0.00501137 -0.000331889 -2.56617e-05 0.47889
0.8 0.015 -0.00469859 -0.000320306 -2.40313e-05 0.450247
0.805 0.015 -0.00439673 -0.000308755 -2.24587e-05 0.422563
0.81 0.015 -0.00410575 -0.000297252 -2.09438e-05 0.395837
0.815 0.015 -0.0038256 -0.000285809 -1.94863e-05 0.370067
0.82 0.015 -0.00355624 -0.000274439 -1.80857e-05 0.345249