Title=" Lid Driven Flow"
VARIABLES="X","Y","U","V","psi","xi"
ZONE T= "BOX", I= 201, J=201, F=POINT
0 0 0 0 0.00130991 0
0.005 0 0 0 0 0
0.01 0 0 0 0 0
0.015 0 0 0 0 161.89
0.02 0 0 0 0 176.13
0.025 0 0 0 0 155.63
0.03 0 0 0 0 133.268
0.035 0 0 0 0 115.778
0.04 0 0 0 0 102.951
0.045 0 0 0 0 93.4381
0.05 0 0 0 0 86.1272
0.055 0 0 0 0 80.2838
0.06 0 0 0 0 75.4491
0.065 0 0 0 0 71.3347
0.07 0 0 0 0 67.7535
0.075 0 0 0 0 64.5803
0.08 0 0 0 0 61.7279
0.085 0 0 0 0 59.1341
0.09 0 0 0 0 56.7534
0.095 0 0 0 0 54.5518
0.1 0 0 0 0 52.5035
0.105 0 0 0 0 50.5884
0.11 0 0 0 0 48.7908
0.115 0 0 0 0 47.0981
0.12 0 0 0 0 45.4999
0.125 0 0 0 0 43.9878
0.13 0 0 0 0 42.5545
0.135 0 0 0 0 41.1939
0.14 0 0 0 0 39.9007
0.145 0 0 0 0 38.6701
0.15 0 0 0 0 37.498
0.155 0 0 0 0 36.3804
0.16 0 0 0 0 35.3138
0.165 0 0 0 0 34.2951
0.17 0 0 0 0 33.3212
0.175 0 0 0 0 32.3893
0.18 0 0 0 0 31.4969
0.185 0 0 0 0 30.6413
0.19 0 0 0 0 29.8203
0.195 0 0 0 0 29.0318
0.2 0 0 0 0 28.2734
0.205 0 0 0 0 27.5434
0.21 0 0 0 0 26.8398
0.215 0 0 0 0 26.1609
0.22 0 0 0 0 25.5049
0.225 0 0 0 0 24.8703
0.23 0 0 0 0 24.2555
0.235 0 0 0 0 23.6591
0.24 0 0 0 0 23.0799
0.245 0 0 0 0 22.5165
0.25 0 0 0 0 21.9677
0.255 0 0 0 0 21.4324
0.26 0 0 0 0 20.9096
0.265 0 0 0 0 20.3983
0.27 0 0 0 0 19.8976
0.275 0 0 0 0 19.4067
0.28 0 0 0 0 18.9247
0.285 0 0 0 0 18.451
0.29 0 0 0 0 17.9849
0.295 0 0 0 0 17.5258
0.3 0 0 0 0 17.0732
0.305 0 0 0 0 16.6265
0.31 0 0 0 0 16.1854
0.315 0 0 0 0 15.7493
0.32 0 0 0 0 15.3181
0.325 0 0 0 0 14.8914
0.33 0 0 0 0 14.469
0.335 0 0 0 0 14.0507
0.34 0 0 0 0 13.6362
0.345 0 0 0 0 13.2256
0.35 0 0 0 0 12.8187
0.355 0 0 0 0 12.4155
0.36 0 0 0 0 12.0159
0.365 0 0 0 0 11.62
0.37 0 0 0 0 11.2279
0.375 0 0 0 0 10.8397
0.38 0 0 0 0 10.4554
0.385 0 0 0 0 10.0752
0.39 0 0 0 0 9.6993
0.395 0 0 0 0 9.32781
0.4 0 0 0 0 8.96097
0.405 0 0 0 0 8.59897
0.41 0 0 0 0 8.24205
0.415 0 0 0 0 7.89044
0.42 0 0 0 0 7.54438
0.425 0 0 0 0 7.20411
0.43 0 0 0 0 6.86989
0.435 0 0 0 0 6.54196
0.44 0 0 0 0 6.22057
0.445 0 0 0 0 5.90596
0.45 0 0 0 0 5.59836
0.455 0 0 0 0 5.29799
0.46 0 0 0 0 5.00507
0.465 0 0 0 0 4.71979
0.47 0 0 0 0 4.44233
0.475 0 0 0 0 4.17286
0.48 0 0 0 0 3.91153
0.485 0 0 0 0 3.65846
0.49 0 0 0 0 3.41375
0.495 0 0 0 0 3.1775
0.5 0 0 0 0 2.94977
0.505 0 0 0 0 2.73059
0.51 0 0 0 0 2.51998
0.515 0 0 0 0 2.31794
0.52 0 0 0 0 2.12444
0.525 0 0 0 0 1.93943
0.53 0 0 0 0 1.76284
0.535 0 0 0 0 1.59458
0.54 0 0 0 0 1.43453
0.545 0 0 0 0 1.28257
0.55 0 0 0 0 1.13855
0.555 0 0 0 0 1.0023
0.56 0 0 0 0 0.873657
0.565 0 0 0 0 0.752415
0.57 0 0 0 0 0.638377
0.575 0 0 0 0 0.531329
0.58 0 0 0 0 0.431048
0.585 0 0 0 0 0.337304
0.59 0 0 0 0 0.249861
0.595 0 0 0 0 0.16848
0.6 0 0 0 0 0.0929151
0.605 0 0 0 0 0.0229213
0.61 0 0 0 0 -0.0417486
0.615 0 0 0 0 -0.101341
0.62 0 0 0 0 -0.156102
0.625 0 0 0 0 -0.206275
0.63 0 0 0 0 -0.252099
0.635 0 0 0 0 -0.293813
0.64 0 0 0 0 -0.331649
0.645 0 0 0 0 -0.365835
0.65 0 0 0 0 -0.396591
0.655 0 0 0 0 -0.424136
0.66 0 0 0 0 -0.448677
0.665 0 0 0 0 -0.470418
0.67 0 0 0 0 -0.489553
0.675 0 0 0 0 -0.506271
0.68 0 0 0 0 -0.52075
0.685 0 0 0 0 -0.533162
0.69 0 0 0 0 -0.543668
0.695 0 0 0 0 -0.552422
0.7 0 0 0 0 -0.559567
0.705 0 0 0 0 -0.565238
0.71 0 0 0 0 -0.569559
0.715 0 0 0 0 -0.572646
0.72 0 0 0 0 -0.574604
0.725 0 0 0 0 -0.575531
0.73 0 0 0 0 -0.575512
0.735 0 0 0 0 -0.574625
0.74 0 0 0 0 -0.57294
0.745 0 0 0 0 -0.570516
0.75 0 0 0 0 -0.567407
0.755 0 0 0 0 -0.563657
0.76 0 0 0 0 -0.559304
0.765 0 0 0 0 -0.55438
0.77 0 0 0 0 -0.548911
0.775 0 0 0 0 -0.542916
0.78 0 0 0 0 -0.536412
0.785 0 0 0 0 -0.52941
0.79 0 0 0 0 -0.52192
0.795 0 0 0 0 -0.513946
0.8 0 0 0 0 -0.505492
0.805 0 0 0 0 -0.496561
0.81 0 0 0 0 -0.487154
0.815 0 0 0 0 -0.47727
0.82 0 0 0 0 -0.466911
0.825 0 0 0 0 -0.456077
0.83 0 0 0 0 -0.44477
0.835 0 0 0 0 -0.432992
0.84 0 0 0 0 -0.420749
0.845 0 0 0 0 -0.408046
0.85 0 0 0 0 -0.394892
0.855 0 0 0 0 -0.381298
0.86 0 0 0 0 -0.367277
0.865 0 0 0 0 -0.352845
0.87 0 0 0 0 -0.338023
0.875 0 0 0 0 -0.322833
0.88 0 0 0 0 -0.307301
0.885 0 0 0 0 -0.291458
0.89 0 0 0 0 -0.275339
0.895 0 0 0 0 -0.258982
0.9 0 0 0 0 -0.242431
0.905 0 0 0 0 -0.225734
0.91 0 0 0 0 -0.208945
0.915 0 0 0 0 -0.192122
0.92 0 0 0 0 -0.175332
0.925 0 0 0 0 -0.158646
0.93 0 0 0 0 -0.142144
0.935 0 0 0 0 -0.125913
0.94 0 0 0 0 -0.110048
0.945 0 0 0 0 -0.0946546
0.95 0 0 0 0 -0.079849
0.955 0 0 0 0 -0.0657582
0.96 0 0 0 0 -0.0525221
0.965 0 0 0 0 -0.0402939
0.97 0 0 0 0 -0.0292412
0.975 0 0 0 0 -0.0195449
0.98 0 0 0 0 -0.011397
0.985 0 0 0 0 -0.00499239
0.99 0 0 0 0 -0.000509612
0.995 0 0 0 0 0.0019351
1 0 0 0 0 0.00239217
0 0.005 0 0 0 0
0.005 0.005 0 0 0 0
0.01 0.005 0 0 0 73.7258
0.015 0.005 0 0 0 62.0067
0.02 0.005 0 0 0 45.5778
0.025 0.005 0 0 0 33.7642
0.03 0.005 0 0 0 25.8775
0.035 0.005 0 0 0 20.5146
0.04 0.005 0 0 0 16.7192
0.045 0.005 0 0 0 13.9235
0.05 0.005 0 0 0 11.7934
0.055 0.005 0 0 0 10.1265
0.06 0.005 0 0 0 8.79481
0.065 0.005 0 0 0 7.71356
0.07 0.005 0 0 0 6.82446
0.075 0.005 0 0 0 6.08593
0.08 0.005 0 0 0 5.46744
0.085 0.005 0 0 0 4.946
0.09 0.005 0 0 0 4.50397
0.095 0.005 0 0 0 4.12757
0.1 0.005 0 0 0 3.80589
0.105 0.005 0 0 0 3.53018
0.11 0.005 0 0 0 3.29336
0.115 0.005 0 0 0 3.08965
0.12 0.005 0 0 0 2.91429
0.125 0.005 0 0 0 2.76334
0.13 0.005 0 0 0 2.63349
0.135 0.005 0 0 0 2.522
0.14 0.005 0 0 0 2.42653
0.145 0.005 0 0 0 2.34511
0.15 0.005 0 0 0 2.27605
0.155 0.005 0 0 0 2.21793
0.16 0.005 0 0 0 2.16951
0.165 0.005 0 0 0 2.12971
0.17 0.005 0 0 0 2.09763
0.175 0.005 0 0 0 2.07245
0.18 0.005 0 0 0 2.05348
0.185 0.005 0 0 0 2.0401
0.19 0.005 0 0 0 2.03177
0.195 0.005 0 0 0 2.02802
0.2 0.005 0 0 0 2.02842
0.205 0.005 0 0 0 2.03259
0.21 0.005 0 0 0 2.04019
0.215 0.005 0 0 0 2.05093
0.22 0.005 0 0 0 2.06451
0.225 0.005 0 0 0 2.0807
0.23 0.005 0 0 0 2.09926
0.235 0.005 0 0 0 2.11998
0.24 0.005 0 0 0 2.14267
0.245 0.005 0 0 0 2.16714
0.25 0.005 0 0 0 2.19323
0.255 0.005 0 0 0 2.22077
0.26 0.005 0 0 0 2.24961
0.265 0.005 0 0 0 2.27961
0.27 0.005 0 0 0 2.31062
0.275 0.005 0 0 0 2.34253
0.28 0.005 0 0 0 2.37519
0.285 0.005 0 0 0 2.40849
0.29 0.005 0 0 0 2.44231
0.295 0.005 0 0 0 2.47652
0.3 0.005 0 0 0 2.51102
0.305 0.005 0 0 0 2.54568
0.31 0.005 0 0 0 2.58041
0.315 0.005 0 0 0 2.61508
0.32 0.005 0 0 0 2.64961
0.325 0.005 0 0 0 2.68387
0.33 0.005 0 0 0 2.71777
0.335 0.005 0 0 0 2.75121
0.34 0.005 0 0 0 2.78408
0.345 0.005 0 0 0 2.81629
0.35 0.005 0 0 0 2.84774
0.355 0.005 0 0 0 2.87834
0.36 0.005 0 0 0 2.908
0.365 0.005 0 0 0 2.93662
0.37 0.005 0 0 0 2.96412
0.375 0.005 0 0 0 2.99041
0.38 0.005 0 0 0 3.01542
0.385 0.005 0 0 0 3.03905
0.39 0.005 0 0 0 3.06125
0.395 0.005 0 0 0 3.08192
0.4 0.005 0 0 0 3.10101
0.405 0.005 0 0 0 3.11845
0.41 0.005 0 0 0 3.13418
0.415 0.005 0 0 0 3.14813
0.42 0.005 0 0 0 3.16025
0.425 0.005 0 0 0 3.17051
0.43 0.005 0 0 0 3.17884
0.435 0.005 0 0 0 3.1852
0.44 0.005 0 0 0 3.18958
0.445 0.005 0 0 0 3.19192
0.45 0.005 0 0 0 3.19221
0.455 0.005 0 0 0 3.19043
0.46 0.005 0 0 0 3.18656
0.465 0.005 0 0 0 3.18059
0.47 0.005 0 0 0 3.17251
0.475 0.005 0 0 0 3.16232
0.48 0.005 0 0 0 3.15004
0.485 0.005 0 0 0 3.13566
0.49 0.005 0 0 0 3.11921
0.495 0.005 0 0 0 3.10071
0.5 0.005 0 0 0 3.08017
0.505 0.005 0 0 0 3.05764
0.51 0.005 0 0 0 3.03314
0.515 0.005 0 0 0 3.00671
0.52 0.005 0 0 0 2.9784
0.525 0.005 0 0 0 2.94826
0.53 0.005 0 0 0 2.91634
0.535 0.005 0 0 0 2.88269
0.54 0.005 0 0 0 2.84738
0.545 0.005 0 0 0 2.81047
0.55 0.005 0 0 0 2.77201
0.555 0.005 0 0 0 2.73209
0.56 0.005 0 0 0 2.69078
0.565 0.005 0 0 0 2.64814
0.57 0.005 0 0 0 2.60426
0.575 0.005 0 0 0 2.55921
0.58 0.005 0 0 0 2.51307
0.585 0.005 0 0 0 2.46592
0.59 0.005 0 0 0 2.41785
0.595 0.005 0 0 0 2.36893
0.6 0.005 0 0 0 2.31925
0.605 0.005 0 0 0 2.26889
0.61 0.005 0 0 0 2.21794
0.615 0.005 0 0 0 2.16646
0.62 0.005 0 0 0 2.11456
0.625 0.005 0 0 0 2.0623
0.63 0.005 0 0 0 2.00976
0.635 0.005 0 0 0 1.95703
0.64 0.005 0 0 0 1.90418
0.645 0.005 0 0 0 1.85128
0.65 0.005 0 0 0 1.7984
0.655 0.005 0 0 0 1.74563
0.66 0.005 0 0 0 1.69301
0.665 0.005 0 0 0 1.64063
0.67 0.005 0 0 0 1.58853
0.675 0.005 0 0 0 1.5368
0.68 0.005 0 0 0 1.48547
0.685 0.005 0 0 0 1.43461
0.69 0.005 0 0 0 1.38426
0.695 0.005 0 0 0 1.33448
0.7 0.005 0 0 0 1.28532
0.705 0.005 0 0 0 1.23682
0.71 0.005 0 0 0 1.18901
0.715 0.005 0 0 0 1.14195
0.72 0.005 0 0 0 1.09565
0.725 0.005 0 0 0 1.05016
0.73 0.005 0 0 0 1.0055
0.735 0.005 0 0 0 0.961708
0.74 0.005 0 0 0 0.918801
0.745 0.005 0 0 0 0.876803
0.75 0.005 0 0 0 0.835733
0.755 0.005 0 0 0 0.795609
0.76 0.005 0 0 0 0.756447
0.765 0.005 0 0 0 0.71826
0.77 0.005 0 0 0 0.681059
0.775 0.005 0 0 0 0.644853
0.78 0.005 0 0 0 0.60965
0.785 0.005 0 0 0 0.575456
0.79 0.005 0 0 0 0.542275
0.795 0.005 0 0 0 0.51011
0.8 0.005 0 0 0 0.478962
0.805 0.005 0 0 0 0.448833
0.81 0.005 0 0 0 0.41972
0.815 0.005 0 0 0 0.391623
0.82 0.005 0 0 0 0.364538
0.825 0.005 0 0 0 0.338462
0.83 0.005 0 0 0 0.313389
0.835 0.005 0 0 0 0.289316
0.84 0.005 0 0 0 0.266237
0.845 0.005 0 0 0 0.244145
0.85 0.005 0 0 0 0.223033
0.855 0.005 0 0 0 0.202896
0.86 0.005 0 0 0 0.183726
0.865 0.005 0 0 0 0.165515
0.87 0.005 0 0 0 0.148256
0.875 0.005 0 0 0 0.131941
0.88 0.005 0 0 0 0.116563
0.885 0.005 0 0 0 0.102114
0.89 0.005 0 0 0 0.0885876
0.895 0.005 0 0 0 0.075975
0.9 0.005 0 0 0 0.0642695
0.905 0.005 0 0 0 0.0534638
0.91 0.005 0 0 0 0.043551
0.915 0.005 0 0 0 0.0345239
0.92 0.005 0 0 0 0.0263756
0.925 0.005 0 0 0 0.0190992
0.93 0.005 0 0 0 0.0126871
0.935 0.005 0 0 0 0.00713136
0.94 0.005 0 0 0 0.00242311
0.945 0.005 0 0 0 -0.00144822
0.95 0.005 0 0 0 -0.00449562
0.955 0.005 0 0 0 -0.0067358
0.96 0.005 0 0 0 -0.00819104
0.965 0.005 0 0 0 -0.0088919
0.97 0.005 0 0 0 -0.00888139
0.975 0.005 0 0 0 -0.00822118
0.98 0.005 0 0 0 -0.00700139
0.985 0.005 0 0 0 -0.0053557
0.99 0.005 0 0 0 -0.00348442
0.995 0.005 0 0 0 -0.00168545
1 0.005 0 0 0 -0.000375502
0 0.01 0 0 -0.000375502 0
0.005 0.01 0 0 0 -326.274
0.01 0.01 -0.179977 0.0775083 -0.000921572 -44.4572
0.015 0.01 -0.184579 -0.0351849 -0.000775083 9.47024
0.02 0.01 -0.155865 -0.0353031 -0.000569723 19.0759
0.025 0.01 -0.126932 -0.0246254 -0.000422052 18.972
0.03 0.01 -0.103634 -0.016562 -0.000323469 16.8379
0.035 0.01 -0.0857148 -0.0114479 -0.000256432 14.5552
0.04 0.01 -0.071932 -0.00823885 -0.00020899 12.5534
0.045 0.01 -0.0611839 -0.00615724 -0.000174044 10.8829
0.05 0.01 -0.0526619 -0.00474619 -0.000147418 9.50297
0.055 0.01 -0.0457985 -0.00374824 -0.000126582 8.36045
0.06 0.01 -0.0401955 -0.00301622 -0.000109935 7.40863
0.065 0.01 -0.0355694 -0.00246294 -9.64194e-05 6.61027
0.07 0.01 -0.0317137 -0.00203452 -8.53056e-05 5.93632
0.075 0.01 -0.0284752 -0.00169626 -7.6074e-05 5.36418
0.08 0.01 -0.0257375 -0.0014249 -6.83428e-05 4.87611
0.085 0.01 -0.0234109 -0.00120432 -6.18248e-05 4.45806
0.09 0.01 -0.0214248 -0.00102302 -5.62994e-05 4.09876
0.095 0.01 -0.0197232 -0.000872585 -5.15944e-05 3.78909
0.1 0.01 -0.0182613 -0.000746722 -4.75734e-05 3.52162
0.105 0.01 -0.0170024 -0.000640641 -4.4127e-05 3.29022
0.11 0.01 -0.0159165 -0.000550638 -4.11668e-05 3.08981
0.115 0.01 -0.0149791 -0.000473816 -3.86204e-05 2.91616
0.12 0.01 -0.0141694 -0.000407876 -3.64285e-05 2.7657
0.125 0.01 -0.0134705 -0.000350982 -3.45415e-05 2.63544
0.13 0.01 -0.0128679 -0.000301653 -3.29185e-05 2.52284
0.135 0.01 -0.0123493 -0.000258686 -3.15248e-05 2.42574
0.14 0.01 -0.0119045 -0.000221097 -3.03314e-05 2.34229
0.145 0.01 -0.0115245 -0.000188076 -2.93136e-05 2.2709
0.15 0.01 -0.011202 -0.000158951 -2.84505e-05 2.2102
0.155 0.01 -0.0109302 -0.000133167 -2.7724e-05 2.15903
0.16 0.01 -0.0107038 -0.000110258 -2.71187e-05 2.11633
0.165 0.01 -0.0105177 -8.98335e-05 -2.66212e-05 2.08124
0.17 0.01 -0.0103678 -7.15645e-05 -2.62202e-05 2.05295
0.175 0.01 -0.0102503 -5.51737e-05 -2.59055e-05 2.0308
0.18 0.01 -0.0101621 -4.04256e-05 -2.56683e-05 2.01416
0.185 0.01 -0.0101002 -2.71203e-05 -2.55011e-05 2.00252
0.19 0.01 -0.0100622 -1.50874e-05 -2.5397e-05 1.9954
0.195 0.01 -0.0100458 -4.18147e-06 -2.53501e-05 1.99238
0.2 0.01 -0.010049 5.72188e-06 -2.53551e-05 1.99307
0.205 0.01 -0.01007 1.47292e-05 -2.54072e-05 1.99715
0.21 0.01 -0.0101073 2.2932e-05 -2.55023e-05 2.0043
0.215 0.01 -0.0101594 3.04086e-05 -2.56365e-05 2.01425
0.22 0.01 -0.0102249 3.72264e-05 -2.58063e-05 2.02675
0.225 0.01 -0.0103027 4.34433e-05 -2.60087e-05 2.04157
0.23 0.01 -0.0103917 4.91092e-05 -2.62407e-05 2.05849
0.235 0.01 -0.0104908 5.42668e-05 -2.64998e-05 2.07733
0.24 0.01 -0.0105992 5.89528e-05 -2.67834e-05 2.09789
0.245 0.01 -0.0107159 6.31987e-05 -2.70893e-05 2.12001
0.25 0.01 -0.0108401 6.70317e-05 -2.74153e-05 2.14354
0.255 0.01 -0.0109711 7.0475e-05 -2.77596e-05 2.16831
0.26 0.01 -0.011108 7.35484e-05 -2.81201e-05 2.19419
0.265 0.01 -0.0112503 7.62692e-05 -2.84951e-05 2.22104
0.27 0.01 -0.0113973 7.86519e-05 -2.88828e-05 2.24873
0.275 0.01 -0.0115482 8.0709e-05 -2.92816e-05 2.27714
0.28 0.01 -0.0117026 8.24515e-05 -2.969e-05 2.30615
0.285 0.01 -0.0118597 8.38886e-05 -3.01062e-05 2.33565
0.29 0.01 -0.0120191 8.50284e-05 -3.05289e-05 2.36551
0.295 0.01 -0.01218 8.58779e-05 -3.09566e-05 2.39564
0.3 0.01 -0.0123421 8.64435e-05 -3.13878e-05 2.42592
0.305 0.01 -0.0125048 8.67306e-05 -3.18211e-05 2.45625
0.31 0.01 -0.0126674 8.67443e-05 -3.22552e-05 2.48653
0.315 0.01 -0.0128296 8.64894e-05 -3.26887e-05 2.51666
0.32 0.01 -0.0129907 8.59702e-05 -3.31202e-05 2.54655
0.325 0.01 -0.0131504 8.5191e-05 -3.35485e-05 2.5761
0.33 0.01 -0.0133081 8.4156e-05 -3.39723e-05 2.60521
0.335 0.01 -0.0134633 8.28695e-05 -3.43902e-05 2.63381
0.34 0.01 -0.0136155 8.1336e-05 -3.48012e-05 2.66178
0.345 0.01 -0.0137643 7.95598e-05 -3.52038e-05 2.68906
0.35 0.01 -0.0139093 7.75459e-05 -3.5597e-05 2.71556
0.355 0.01 -0.01405 7.52993e-05 -3.59795e-05 2.74119
0.36 0.01 -0.014186 7.28254e-05 -3.63502e-05 2.76588
0.365 0.01 -0.0143168 7.013e-05 -3.6708e-05 2.78955
0.37 0.01 -0.0144421 6.72191e-05 -3.70517e-05 2.81211
0.375 0.01 -0.0145614 6.40995e-05 -3.73804e-05 2.83351
0.38 0.01 -0.0146745 6.07781e-05 -3.7693e-05 2.85367
0.385 0.01 -0.0147808 5.72624e-05 -3.79885e-05 2.87253
0.39 0.01 -0.0148801 5.35604e-05 -3.82659e-05 2.89002
0.395 0.01 -0.014972 4.96804e-05 -3.85243e-05 2.90609
0.4 0.01 -0.0150563 4.56314e-05 -3.8763e-05 2.92067
0.405 0.01 -0.0151326 4.14226e-05 -3.8981e-05 2.93372
0.41 0.01 -0.0152006 3.70638e-05 -3.91775e-05 2.94518
0.415 0.01 -0.0152602 3.25653e-05 -3.93519e-05 2.95501
0.42 0.01 -0.0153109 2.79376e-05 -3.95035e-05 2.96317
0.425 0.01 -0.0153527 2.31918e-05 -3.96317e-05 2.96962
0.43 0.01 -0.0153854 1.83392e-05 -3.97358e-05 2.97432
0.435 0.01 -0.0154087 1.33915e-05 -3.98154e-05 2.97726
0.44 0.01 -0.0154225 8.36083e-06 -3.98701e-05 2.97839
0.445 0.01 -0.0154267 3.25934e-06 -3.98994e-05 2.97771
0.45 0.01 -0.0154212 -1.90044e-06 -3.9903e-05 2.9752
0.455 0.01 -0.0154058 -7.10582e-06 -3.98808e-05 2.97083
0.46 0.01 -0.0153806 -1.2344e-05 -3.98324e-05 2.96461
0.465 0.01 -0.0153455 -1.7602e-05 -3.97577e-05 2.95654
0.47 0.01 -0.0153005 -2.28669e-05 -3.96568e-05 2.94661
0.475 0.01 -0.0152455 -2.81258e-05 -3.95295e-05 2.93482
0.48 0.01 -0.0151808 -3.33656e-05 -3.93759e-05 2.9212
0.485 0.01 -0.0151062 -3.85735e-05 -3.91962e-05 2.90575
0.49 0.01 -0.0150219 -4.37369e-05 -3.89906e-05 2.88849
0.495 0.01 -0.014928 -4.88433e-05 -3.87593e-05 2.86945
0.5 0.01 -0.0148246 -5.38803e-05 -3.85026e-05 2.84864
0.505 0.01 -0.0147119 -5.8836e-05 -3.82209e-05 2.82611
0.51 0.01 -0.01459 -6.36988e-05 -3.79146e-05 2.80189
0.515 0.01 -0.0144592 -6.84574e-05 -3.75843e-05 2.77601
0.52 0.01 -0.0143196 -7.3101e-05 -3.72304e-05 2.74851
0.525 0.01 -0.0141715 -7.76192e-05 -3.68537e-05 2.71945
0.53 0.01 -0.0140152 -8.20021e-05 -3.64547e-05 2.68886
0.535 0.01 -0.0138509 -8.62404e-05 -3.60341e-05 2.65681
0.54 0.01 -0.0136788 -9.03253e-05 -3.55927e-05 2.62333
0.545 0.01 -0.0134994 -9.42487e-05 -3.51312e-05 2.5885
0.55 0.01 -0.0133128 -9.80032e-05 -3.46506e-05 2.55237
0.555 0.01 -0.0131195 -0.000101582 -3.41516e-05 2.51501
0.56 0.01 -0.0129198 -0.000104978 -3.36351e-05 2.47646
0.565 0.01 -0.012714 -0.000108187 -3.31022e-05 2.43681
0.57 0.01 -0.0125024 -0.000111203 -3.25536e-05 2.39611
0.575 0.01 -0.0122855 -0.000114023 -3.19905e-05 2.35443
0.58 0.01 -0.0120636 -0.000116643 -3.14137e-05 2.31185
0.585 0.01 -0.0118371 -0.000119061 -3.08244e-05 2.26843
0.59 0.01 -0.0116063 -0.000121274 -3.02235e-05 2.22424
0.595 0.01 -0.0113717 -0.000123282 -2.9612e-05 2.17936
0.6 0.01 -0.0111336 -0.000125083 -2.8991e-05 2.13385
0.605 0.01 -0.0108925 -0.000126678 -2.83615e-05 2.08778
0.61 0.01 -0.0106486 -0.000128068 -2.77245e-05 2.04123
0.615 0.01 -0.0104024 -0.000129254 -2.70811e-05 1.99426
0.62 0.01 -0.0101542 -0.000130238 -2.64323e-05 1.94695
0.625 0.01 -0.00990451 -0.000131023 -2.5779e-05 1.89936
0.63 0.01 -0.00965357 -0.000131612 -2.51223e-05 1.85155
0.635 0.01 -0.00940178 -0.000132008 -2.44632e-05 1.80361
0.64 0.01 -0.00914948 -0.000132217 -2.38025e-05 1.75558
0.645 0.01 -0.00889703 -0.000132242 -2.31412e-05 1.70754
0.65 0.01 -0.00864476 -0.00013209 -2.24803e-05 1.65954
0.655 0.01 -0.00839299 -0.000131764 -2.18205e-05 1.61164
0.66 0.01 -0.00814204 -0.000131271 -2.11629e-05 1.56391
0.665 0.01 -0.00789221 -0.000130618 -2.0508e-05 1.51639
0.67 0.01 -0.00764379 -0.00012981 -1.98569e-05 1.46915
0.675 0.01 -0.00739707 -0.000128854 -1.92101e-05 1.42223
0.68 0.01 -0.0071523 -0.000127757 -1.85685e-05 1.37568
0.685 0.01 -0.00690975 -0.000126525 -1.79327e-05 1.32955
0.69 0.01 -0.00666966 -0.000125167 -1.73034e-05 1.28388
0.695 0.01 -0.00643226 -0.000123689 -1.66812e-05 1.23872
0.7 0.01 -0.00619775 -0.000122098 -1.60667e-05 1.1941
0.705 0.01 -0.00596636 -0.0001204 -1.54604e-05 1.15007
0.71 0.01 -0.00573826 -0.000118605 -1.48628e-05 1.10665
0.715 0.01 -0.00551364 -0.000116717 -1.42744e-05 1.06389
0.72 0.01 -0.00529265 -0.000114745 -1.36957e-05 1.02181
0.725 0.01 -0.00507546 -0.000112694 -1.31271e-05 0.980438
0.73 0.01 -0.0048622 -0.000110573 -1.25689e-05 0.939803
0.735 0.01 -0.00465299 -0.000108386 -1.20214e-05 0.899928
0.74 0.01 -0.00444796 -0.000106141 -1.14851e-05 0.860834
0.745 0.01 -0.00424721 -0.000103843 -1.09601e-05 0.822543
0.75 0.01 -0.00405083 -0.000101499 -1.04467e-05 0.78507
0.755 0.01 -0.00385891 -9.91133e-05 -9.94517e-06 0.748433
0.76 0.01 -0.00367152 -9.66923e-05 -9.45564e-06 0.712645
0.765 0.01 -0.00348872 -9.42407e-05 -8.97829e-06 0.677719
0.77 0.01 -0.00331057 -9.17634e-05 -8.51327e-06 0.643664
0.775 0.01 -0.00313711 -8.9265e-05 -8.0607e-06 0.610491
0.78 0.01 -0.00296838 -8.67498e-05 -7.62065e-06 0.578206
0.785 0.01 -0.00280441 -8.42219e-05 -7.19322e-06 0.546815
0.79 0.01 -0.00264523 -8.1685e-05 -6.77846e-06 0.516324
0.795 0.01 -0.00249084 -7.91426e-05 -6.37639e-06 0.486736
0.8 0.01 -0.00234127 -7.65979e-05 -5.98705e-06 0.458052
0.805 0.01 -0.0021965 -7.4054e-05 -5.61042e-06 0.430276
0.81 0.01 -0.00205655 -7.15135e-05 -5.24651e-06 0.403406
0.815 0.01 -0.0019214 -6.8979e-05 -4.89529e-06 0.377443
0.82 0.01 -0.00179104 -6.64525e-05 -4.55673e-06 0.352384
0.825 0.01 -0.00166547 -6.39361e-05 -4.23077e-06 0.328229
0.83 0.01 -0.00154466 -6.14317e-05 -3.91737e-06 0.304974
0.835 0.01 -0.00142859 -5.89406e-05 -3.61645e-06 0.282616
0.84 0.01 -0.00131723 -5.64643e-05 -3.32796e-06 0.26115
0.845 0.01 -0.00121057 -5.40038e-05 -3.0518e-06 0.240574
0.85 0.01 -0.00110857 -5.15601e-05 -2.78791e-06 0.220881
0.855 0.01 -0.0010112 -4.9134e-05 -2.53619e-06 0.202067
0.86 0.01 -0.000918432 -4.67261e-05 -2.29656e-06 0.184127
0.865 0.01 -0.000830233 -4.43367e-05 -2.06892e-06 0.167055
0.87 0.01 -0.000746571 -4.19662e-05 -1.85318e-06 0.150846
0.875 0.01 -0.00066741 -3.96146e-05 -1.64925e-06 0.135492
0.88 0.01 -0.000592717 -3.7282e-05 -1.45703e-06 0.120989
0.885 0.01 -0.000522458 -3.49683e-05 -1.27642e-06 0.10733
0.89 0.01 -0.000456598 -3.26732e-05 -1.10733e-06 0.0945093
0.895 0.01 -0.000395102 -3.03965e-05 -9.49677e-07 0.0825199
0.9 0.01 -0.000337937 -2.81379e-05 -8.03359e-07 0.0713558
0.905 0.01 -0.000285068 -2.58972e-05 -6.68288e-07 0.0610103
0.91 0.01 -0.00023646 -2.36739e-05 -5.44377e-07 0.0514766
0.915 0.01 -0.00019208 -2.14682e-05 -4.31539e-07 0.0427478
0.92 0.01 -0.000151889 -1.928e-05 -3.29687e-07 0.0348164
0.925 0.01 -0.000115852 -1.71099e-05 -2.38732e-07 0.0276743
0.93 0.01 -8.39278e-05 -1.4959e-05 -1.58581e-07 0.0213126
0.935 0.01 -5.60712e-05 -1.28292e-05 -8.91353e-08 0.0157212
0.94 0.01 -3.22309e-05 -1.07238e-05 -3.02829e-08 0.010888
0.945 0.01 -1.23459e-05 -8.64782e-06 1.8108e-08 0.00679879
0.95 0.01 3.659e-06 -6.60896e-06 5.61998e-08 0.00343582
0.955 0.01 1.58794e-05 -4.61882e-06 8.42013e-08 0.000776675
0.96 0.01 2.44396e-05 -2.69475e-06 1.02391e-07 -0.00120751
0.965 0.01 2.95053e-05 -8.62633e-07 1.11151e-07 -0.00255447
0.97 0.01 3.1301e-05 8.38635e-07 1.11019e-07 -0.00331414
0.975 0.01 3.0135e-05 2.35017e-06 1.02766e-07 -0.00355301
0.98 0.01 2.64348e-05 3.58197e-06 8.75181e-08 -0.00335961
0.985 0.01 2.07971e-05 4.39628e-06 6.69465e-08 -0.00285037
0.99 0.01 1.40516e-05 4.58784e-06 4.35553e-08 -0.00217241
0.995 0.01 7.33171e-06 3.88615e-06 2.10681e-08 -0.00149177
1 0.01 2.10277e-06 2.10681e-06 4.69372e-09 -0.000932844
0 0.015 0 0 -0.00168222 0
0.005 0.015 0 0 0 -256.018
0.01 0.015 -0.152692 0.184579 -0.00179977 -79.3294
0.015 0.015 -0.205803 -0.0241119 -0.00184579 -16.6621
0.02 0.015 -0.203937 -0.0576477 -0.00155865 2.37221
0.025 0.015 -0.18393 -0.0522314 -0.00126932 8.04502
0.03 0.015 -0.160716 -0.041217 -0.00103634 9.40798
0.035 0.015 -0.139271 -0.0317021 -0.000857148 9.30572
0.04 0.015 -0.120822 -0.0245309 -0.00071932 8.71625
0.045 0.015 -0.105326 -0.01927 -0.000611839 7.99738
0.05 0.015 -0.0923889 -0.0153854 -0.000526619 7.28287
0.055 0.015 -0.0815721 -0.0124664 -0.000457985 6.62074
0.06 0.015 -0.07249 -0.0102291 -0.000401955 6.02515
0.065 0.015 -0.064826 -0.00848178 -0.000355693 5.49673
0.07 0.015 -0.0583265 -0.00709412 -0.000317137 5.031
0.075 0.015 -0.0527892 -0.00597614 -0.000284752 4.6218
0.08 0.015 -0.0480523 -0.0050643 -0.000257375 4.26279
0.085 0.015 -0.043986 -0.00431272 -0.000234108 3.94798
0.09 0.015 -0.0404848 -0.00368756 -0.000214247 3.67198
0.095 0.015 -0.0374629 -0.0031634 -0.000197232 3.43003
0.1 0.015 -0.0348496 -0.00272081 -0.000182612 3.21796
0.105 0.015 -0.0325864 -0.0023447 -0.000170023 3.03214
0.11 0.015 -0.0306246 -0.00202324 -0.000159164 2.86941
0.115 0.015 -0.0289236 -0.00174701 -0.00014979 2.72704
0.12 0.015 -0.0274489 -0.00150847 -0.000141694 2.60265
0.125 0.015 -0.0261717 -0.00130151 -0.000134704 2.49418
0.13 0.015 -0.0250674 -0.00112116 -0.000128678 2.39984
0.135 0.015 -0.0241149 -0.000963345 -0.000123492 2.31806
0.14 0.015 -0.0232962 -0.000824698 -0.000119044 2.24748
0.145 0.015 -0.022596 -0.00070243 -0.000115245 2.18689
0.15 0.015 -0.022001 -0.000594216 -0.000112019 2.13526
0.155 0.015 -0.0214995 -0.00049811 -0.000109302 2.09167
0.16 0.015 -0.0210816 -0.000412477 -0.000107037 2.0553
0.165 0.015 -0.0207385 -0.000335938 -0.000105177 2.02543
0.17 0.015 -0.0204626 -0.000267326 -0.000103677 2.00144
0.175 0.015 -0.0202471 -0.000205649 -0.000102503 1.98276
0.18 0.015 -0.0200862 -0.000150065 -0.00010162 1.96888
0.185 0.015 -0.0199747 -9.98525e-05 -0.000101002 1.95936
0.19 0.015 -0.0199078 -5.43964e-05 -0.000100622 1.9538
0.195 0.015 -0.0198814 -1.31687e-05 -0.000100457 1.95183
0.2 0.015 -0.0198919 2.42836e-05 -0.00010049 1.95313
0.205 0.015 -0.0199358 5.83501e-05 -0.0001007 1.95741
0.21 0.015 -0.0200102 8.9366e-05 -0.000101073 1.96438
0.215 0.015 -0.0201124 0.00011762 -0.000101593 1.97382
0.22 0.015 -0.0202399 0.000143361 -0.000102249 1.98548
0.225 0.015 -0.0203904 0.000166803 -0.000103027 1.99917
0.23 0.015 -0.0205618 0.000188131 -0.000103917 2.0147
0.235 0.015 -0.0207521 0.000207506 -0.000104908 2.03187
0.24 0.015 -0.0209597 0.000225064 -0.000105992 2.05054
0.245 0.015 -0.0211827 0.000240924 -0.000107159 2.07053
0.25 0.015 -0.0214196 0.000255189 -0.000108401 2.09171
0.255 0.015 -0.021669 0.000267947 -0.000109711 2.11393
0.26 0.015 -0.0219294 0.000279274 -0.00011108 2.13707
0.265 0.015 -0.0221995 0.000289235 -0.000112503 2.16099
0.27 0.015 -0.022478 0.000297888 -0.000113973 2.18558
0.275 0.015 -0.0227636 0.000305282 -0.000115483 2.21071
0.28 0.015 -0.0230552 0.000311458 -0.000117026 2.23629
0.285 0.015 -0.0233515 0.000316456 -0.000118597 2.2622
0.29 0.015 -0.0236516 0.000320306 -0.000120191 2.28834
0.295 0.015 -0.0239543 0.000323039 -0.000121801 2.31461
0.3 0.015 -0.0242585 0.000324679 -0.000123422 2.34091
0.305 0.015 -0.0245632 0.000325251 -0.000125048 2.36714
0.31 0.015 -0.0248675 0.000324776 -0.000126675 2.39322
0.315 0.015 -0.0251702 0.000323274 -0.000128296 2.41905
0.32 0.015 -0.0254705 0.000320765 -0.000129908 2.44455
0.325 0.015 -0.0257673 0.000317267 -0.000131505 2.46964
0.33 0.015 -0.0260598 0.0003128 -0.000133081 2.49422
0.335 0.015 -0.0263471 0.00030738 -0.000134633 2.51822
0.34 0.015 -0.0266283 0.000301029 -0.000136156 2.54157
0.345 0.015 -0.0269024 0.000293765 -0.000137644 2.56418
0.35 0.015 -0.0271688 0.00028561 -0.000139094 2.58599
0.355 0.015 -0.0274264 0.000276585 -0.000140501 2.60693
0.36 0.015 -0.0276746 0.000266712 -0.000141861 2.62691
0.365 0.015 -0.0279126 0.000256016 -0.000143169 2.6459
0.37 0.015 -0.0281396 0.000244523 -0.000144422 2.6638
0.375 0.015 -0.0283549 0.000232259 -0.000145615 2.68058
0.38 0.015 -0.0285577 0.000219253 -0.000146746 2.69618
0.385 0.015 -0.0287475 0.000205535 -0.000147809 2.71053
0.39 0.015 -0.0289237 0.000191138 -0.000148802 2.72359
0.395 0.015 -0.0290855 0.000176093 -0.000149722 2.73531
0.4 0.015 -0.0292324 0.000160438 -0.000150564 2.74566
0.405 0.015 -0.029364 0.000144207 -0.000151327 2.75458
0.41 0.015 -0.0294797 0.000127439 -0.000152008 2.76204
0.415 0.015 -0.029579 0.000110174 -0.000152603 2.768
0.42 0.015 -0.0296616 9.24524e-05 -0.000153111 2.77244
0.425 0.015 -0.029727 7.43165e-05 -0.000153529 2.77534
0.43 0.015 -0.029775 5.58097e-05 -0.000153855 2.77666
0.435 0.015 -0.0298051 3.69765e-05 -0.000154088 2.77639
0.44 0.015 -0.0298173 1.78623e-05 -0.000154226 2.77451
0.445 0.015 -0.0298111 -1.48677e-06 -0.000154268 2.77102
0.45 0.015 -0.0297866 -2.10238e-05 -0.000154213 2.76589
0.455 0.015 -0.0297436 -4.07013e-05 -0.00015406 2.75914
0.46 0.015 -0.0296819 -6.04716e-05 -0.000153808 2.75076
0.465 0.015 -0.0296016 -8.02867e-05 -0.000153456 2.74075
0.47 0.015 -0.0295027 -0.000100099 -0.000153006 2.72912
0.475 0.015 -0.0293852 -0.000119859 -0.000152457 2.71589
0.48 0.015 -0.0292492 -0.000139522 -0.000151809 2.70106
0.485 0.015 -0.0290948 -0.000159038 -0.000151063 2.68465
0.49 0.015 -0.0289224 -0.000178363 -0.00015022 2.66668
0.495 0.015 -0.0287319 -0.00019745 -0.000149281 2.64719
0.5 0.015 -0.0285239 -0.000216254 -0.000148247 2.62619
0.505 0.015 -0.0282984 -0.000234733 -0.00014712 2.60371
0.51 0.015 -0.028056 -0.000252845 -0.000145902 2.5798
0.515 0.015 -0.0277969 -0.000270548 -0.000144593 2.55449
0.52 0.015 -0.0275216 -0.000287803 -0.000143198 2.52782
0.525 0.015 -0.0272306 -0.000304575 -0.000141717 2.49982
0.53 0.015 -0.0269242 -0.000320826 -0.000140154 2.47055
0.535 0.015 -0.0266031 -0.000336525 -0.00013851 2.44004
0.54 0.015 -0.0262678 -0.000351639 -0.00013679 2.40836
0.545 0.015 -0.0259189 -0.00036614 -0.000134995 2.37554
0.55 0.015 -0.0255569 -0.000380002 -0.00013313 2.34165
0.555 0.015 -0.0251824 -0.0003932 -0.000131197 2.30673
0.56 0.015 -0.0247961 -0.000405712 -0.000129199 2.27084
0.565 0.015 -0.0243987 -0.00041752 -0.000127141 2.23404
0.57 0.015 -0.0239908 -0.000428607 -0.000125026 2.19638
0.575 0.015 -0.0235731 -0.000438958 -0.000122857 2.15793
0.58 0.015 -0.0231463 -0.000448563 -0.000120637 2.11873
0.585 0.015 -0.022711 -0.000457413 -0.000118372 2.07886
0.59 0.015 -0.0222681 -0.000465501 -0.000116065 2.03837
0.595 0.015 -0.0218181 -0.000472823 -0.000113718 1.99732
0.6 0.015 -0.0213619 -0.000479379 -0.000111338 1.95577
0.605 0.015 -0.0209001 -0.000485169 -0.000108926 1.91379
0.61 0.015 -0.0204334 -0.000490197 -0.000106487 1.87142
0.615 0.015 -0.0199626 -0.000494469 -0.000104025 1.82873
0.62 0.015 -0.0194883 -0.000497993 -0.000101544 1.78577
0.625 0.015 -0.0190112 -0.00050078 -9.90462e-05 1.74261
0.63 0.015 -0.018532 -0.00050284 -9.65367e-05 1.6993
0.635 0.015 -0.0180514 -0.000504189 -9.40188e-05 1.65589
0.64 0.015 -0.01757 -0.000504843 -9.14958e-05 1.61244
0.645 0.015 -0.0170884 -0.000504818 -8.89713e-05 1.569
0.65 0.015 -0.0166073 -0.000504133 -8.64485e-05 1.52563
0.655 0.015 -0.0161272 -0.000502809 -8.39308e-05 1.48237
0.66 0.015 -0.0156488 -0.000500867 -8.14212e-05 1.43927
0.665 0.015 -0.0151725 -0.00049833 -7.89229e-05 1.39637
0.67 0.015 -0.014699 -0.000495221 -7.64387e-05 1.35373
0.675 0.015 -0.0142288 -0.000491564 -7.39714e-05 1.31138
0.68 0.015 -0.0137623 -0.000487385 -7.15237e-05 1.26937
0.685 0.015 -0.0133 -0.000482709 -6.90982e-05 1.22774
0.69 0.015 -0.0128424 -0.00047756 -6.66972e-05 1.18652
0.695 0.015 -0.0123899 -0.000471967 -6.43231e-05 1.14574
0.7 0.015 -0.0119428 -0.000465953 -6.19781e-05 1.10545
0.705 0.015 -0.0115017 -0.000459547 -5.96641e-05 1.06568
0.71 0.015 -0.0110667 -0.000452772 -5.73831e-05 1.02644
0.715 0.015 -0.0106383 -0.000445656 -5.51368e-05 0.987782
0.72 0.015 -0.0102168 -0.000438223 -5.29269e-05 0.949719
0.725 0.015 -0.00980236 -0.000430498 -5.0755e-05 0.912278
0.73 0.015 -0.00939535 -0.000422506 -4.86223e-05 0.875483
0.735 0.015 -0.00899598 -0.00041427 -4.65302e-05 0.839353
0.74 0.015 -0.00860446 -0.000405813 -4.44799e-05 0.803907
0.745 0.015 -0.008221 -0.000397158 -4.24724e-05 0.769163
0.75 0.015 -0.00784576 -0.000388326 -4.05086e-05 0.735137
0.755 0.015 -0.00747892 -0.000379338 -3.85893e-05 0.701842
0.76 0.015 -0.00712059 -0.000370213 -3.67154e-05 0.669292
0.765 0.015 -0.00677092 -0.000360971 -3.48874e-05 0.637497
0.77 0.015 -0.00642999 -0.000351628 -3.31058e-05 0.606468
0.775 0.015 -0.00609791 -0.000342202 -3.13712e-05 0.576212
0.78 0.015 -0.00577474 -0.00033271 -2.96839e-05 0.546738
0.785 0.015 -0.00546055 -0.000323164 -2.80442e-05 0.51805
0.79 0.015 -0.00515538 -0.000313581 -2.64524e-05 0.490156
0.795 0.015 -0.00485926 -0.000303972 -2.49085e-05 0.463057
0.8 0.015 -0.00457222 -0.000294349 -2.34127e-05 0.436759
0.805 0.015 -0.00429427 -0.000284724 -2.19651e-05 0.411261
0.81 0.015 -0.00402541 -0.000275107 -2.05655e-05 0.386567
0.815 0.015 -0.00376564 -0.000265506 -1.9214e-05 0.362676
0.82 0.015 -0.00351494 -0.000255931 -1.79105e-05 0.339589