Title=" Lid Driven Flow"
VARIABLES="X","Y","U","V","psi","xi"
ZONE T= "BOX", I= 201, J=201, F=POINT
0 0 0 0 0.000336999 0
0.005 0 0 0 0 0
0.01 0 0 0 0 0
0.015 0 0 0 0 161.887
0.02 0 0 0 0 176.135
0.025 0 0 0 0 155.658
0.03 0 0 0 0 133.328
0.035 0 0 0 0 115.874
0.04 0 0 0 0 103.079
0.045 0 0 0 0 93.592
0.05 0 0 0 0 86.2964
0.055 0 0 0 0 80.4567
0.06 0 0 0 0 75.6132
0.065 0 0 0 0 71.4777
0.07 0 0 0 0 67.8641
0.075 0 0 0 0 64.6479
0.08 0 0 0 0 61.7435
0.085 0 0 0 0 59.0899
0.09 0 0 0 0 56.6431
0.095 0 0 0 0 54.3704
0.1 0 0 0 0 52.2471
0.105 0 0 0 0 50.2543
0.11 0 0 0 0 48.3773
0.115 0 0 0 0 46.6043
0.12 0 0 0 0 44.9256
0.125 0 0 0 0 43.3333
0.13 0 0 0 0 41.8207
0.135 0 0 0 0 40.3819
0.14 0 0 0 0 39.0119
0.145 0 0 0 0 37.706
0.15 0 0 0 0 36.4602
0.155 0 0 0 0 35.2706
0.16 0 0 0 0 34.1337
0.165 0 0 0 0 33.0461
0.17 0 0 0 0 32.0049
0.175 0 0 0 0 31.0069
0.18 0 0 0 0 30.0496
0.185 0 0 0 0 29.1301
0.19 0 0 0 0 28.2461
0.195 0 0 0 0 27.3951
0.2 0 0 0 0 26.5749
0.205 0 0 0 0 25.7833
0.21 0 0 0 0 25.0184
0.215 0 0 0 0 24.2781
0.22 0 0 0 0 23.5606
0.225 0 0 0 0 22.8644
0.23 0 0 0 0 22.1877
0.235 0 0 0 0 21.529
0.24 0 0 0 0 20.8871
0.245 0 0 0 0 20.2605
0.25 0 0 0 0 19.6482
0.255 0 0 0 0 19.049
0.26 0 0 0 0 18.4619
0.265 0 0 0 0 17.886
0.27 0 0 0 0 17.3205
0.275 0 0 0 0 16.7647
0.28 0 0 0 0 16.218
0.285 0 0 0 0 15.6799
0.29 0 0 0 0 15.1498
0.295 0 0 0 0 14.6274
0.3 0 0 0 0 14.1124
0.305 0 0 0 0 13.6045
0.31 0 0 0 0 13.1037
0.315 0 0 0 0 12.6097
0.32 0 0 0 0 12.1226
0.325 0 0 0 0 11.6425
0.33 0 0 0 0 11.1693
0.335 0 0 0 0 10.7032
0.34 0 0 0 0 10.2445
0.345 0 0 0 0 9.79318
0.35 0 0 0 0 9.34964
0.355 0 0 0 0 8.9141
0.36 0 0 0 0 8.48686
0.365 0 0 0 0 8.06824
0.37 0 0 0 0 7.65853
0.375 0 0 0 0 7.25808
0.38 0 0 0 0 6.8672
0.385 0 0 0 0 6.48622
0.39 0 0 0 0 6.11544
0.395 0 0 0 0 5.75515
0.4 0 0 0 0 5.40562
0.405 0 0 0 0 5.06712
0.41 0 0 0 0 4.73985
0.415 0 0 0 0 4.42402
0.42 0 0 0 0 4.11978
0.425 0 0 0 0 3.82726
0.43 0 0 0 0 3.54654
0.435 0 0 0 0 3.27769
0.44 0 0 0 0 3.0207
0.445 0 0 0 0 2.77555
0.45 0 0 0 0 2.54218
0.455 0 0 0 0 2.32048
0.46 0 0 0 0 2.11032
0.465 0 0 0 0 1.91153
0.47 0 0 0 0 1.72389
0.475 0 0 0 0 1.54718
0.48 0 0 0 0 1.38113
0.485 0 0 0 0 1.22545
0.49 0 0 0 0 1.07983
0.495 0 0 0 0 0.943949
0.5 0 0 0 0 0.817454
0.505 0 0 0 0 0.699988
0.51 0 0 0 0 0.591181
0.515 0 0 0 0 0.490658
0.52 0 0 0 0 0.398035
0.525 0 0 0 0 0.312928
0.53 0 0 0 0 0.234953
0.535 0 0 0 0 0.163726
0.54 0 0 0 0 0.0988674
0.545 0 0 0 0 0.0400031
0.55 0 0 0 0 -0.0132341
0.555 0 0 0 0 -0.0612033
0.56 0 0 0 0 -0.104254
0.565 0 0 0 0 -0.142726
0.57 0 0 0 0 -0.176945
0.575 0 0 0 0 -0.207228
0.58 0 0 0 0 -0.233876
0.585 0 0 0 0 -0.257177
0.59 0 0 0 0 -0.277405
0.595 0 0 0 0 -0.294818
0.6 0 0 0 0 -0.309659
0.605 0 0 0 0 -0.322157
0.61 0 0 0 0 -0.332523
0.615 0 0 0 0 -0.340954
0.62 0 0 0 0 -0.347633
0.625 0 0 0 0 -0.352724
0.63 0 0 0 0 -0.35638
0.635 0 0 0 0 -0.358741
0.64 0 0 0 0 -0.35993
0.645 0 0 0 0 -0.360061
0.65 0 0 0 0 -0.359237
0.655 0 0 0 0 -0.357548
0.66 0 0 0 0 -0.355079
0.665 0 0 0 0 -0.351903
0.67 0 0 0 0 -0.348088
0.675 0 0 0 0 -0.343695
0.68 0 0 0 0 -0.338781
0.685 0 0 0 0 -0.333396
0.69 0 0 0 0 -0.327589
0.695 0 0 0 0 -0.321405
0.7 0 0 0 0 -0.314887
0.705 0 0 0 0 -0.308073
0.71 0 0 0 0 -0.301003
0.715 0 0 0 0 -0.293714
0.72 0 0 0 0 -0.286242
0.725 0 0 0 0 -0.278621
0.73 0 0 0 0 -0.270884
0.735 0 0 0 0 -0.263065
0.74 0 0 0 0 -0.255194
0.745 0 0 0 0 -0.2473
0.75 0 0 0 0 -0.239412
0.755 0 0 0 0 -0.231558
0.76 0 0 0 0 -0.223761
0.765 0 0 0 0 -0.216046
0.77 0 0 0 0 -0.208435
0.775 0 0 0 0 -0.200946
0.78 0 0 0 0 -0.193598
0.785 0 0 0 0 -0.186405
0.79 0 0 0 0 -0.179381
0.795 0 0 0 0 -0.172537
0.8 0 0 0 0 -0.165882
0.805 0 0 0 0 -0.159423
0.81 0 0 0 0 -0.153163
0.815 0 0 0 0 -0.147106
0.82 0 0 0 0 -0.141251
0.825 0 0 0 0 -0.135597
0.83 0 0 0 0 -0.13014
0.835 0 0 0 0 -0.124876
0.84 0 0 0 0 -0.119796
0.845 0 0 0 0 -0.114892
0.85 0 0 0 0 -0.110155
0.855 0 0 0 0 -0.105572
0.86 0 0 0 0 -0.101132
0.865 0 0 0 0 -0.096821
0.87 0 0 0 0 -0.0926242
0.875 0 0 0 0 -0.0885269
0.88 0 0 0 0 -0.0845135
0.885 0 0 0 0 -0.0805684
0.89 0 0 0 0 -0.0766756
0.895 0 0 0 0 -0.0728197
0.9 0 0 0 0 -0.0689855
0.905 0 0 0 0 -0.0651589
0.91 0 0 0 0 -0.0613266
0.915 0 0 0 0 -0.0574774
0.92 0 0 0 0 -0.0536016
0.925 0 0 0 0 -0.0496925
0.93 0 0 0 0 -0.0457463
0.935 0 0 0 0 -0.0417631
0.94 0 0 0 0 -0.0377475
0.945 0 0 0 0 -0.0337097
0.95 0 0 0 0 -0.0296661
0.955 0 0 0 0 -0.025641
0.96 0 0 0 0 -0.0216673
0.965 0 0 0 0 -0.0177885
0.97 0 0 0 0 -0.0140601
0.975 0 0 0 0 -0.0105516
0.98 0 0 0 0 -0.00734788
0.985 0 0 0 0 -0.00455076
0.99 0 0 0 0 -0.00227733
0.995 0 0 0 0 -0.000651933
1 0 0 0 0 0.00022123
0 0.005 0 0 0 0
0.005 0.005 0 0 0 0
0.01 0.005 0 0 0 73.7229
0.015 0.005 0 0 0 61.9684
0.02 0.005 0 0 0 45.495
0.025 0.005 0 0 0 33.6595
0.03 0.005 0 0 0 25.7856
0.035 0.005 0 0 0 20.4667
0.04 0.005 0 0 0 16.7373
0.045 0.005 0 0 0 14.0197
0.05 0.005 0 0 0 11.9718
0.055 0.005 0 0 0 10.3854
0.06 0.005 0 0 0 9.12854
0.065 0.005 0 0 0 8.11434
0.07 0.005 0 0 0 7.28341
0.075 0.005 0 0 0 6.59386
0.08 0.005 0 0 0 6.01538
0.085 0.005 0 0 0 5.52547
0.09 0.005 0 0 0 5.10719
0.095 0.005 0 0 0 4.74749
0.1 0.005 0 0 0 4.43621
0.105 0.005 0 0 0 4.16534
0.11 0.005 0 0 0 3.92847
0.115 0.005 0 0 0 3.72043
0.12 0.005 0 0 0 3.53701
0.125 0.005 0 0 0 3.37473
0.13 0.005 0 0 0 3.23075
0.135 0.005 0 0 0 3.10264
0.14 0.005 0 0 0 2.98842
0.145 0.005 0 0 0 2.88636
0.15 0.005 0 0 0 2.79502
0.155 0.005 0 0 0 2.71316
0.16 0.005 0 0 0 2.63971
0.165 0.005 0 0 0 2.57374
0.17 0.005 0 0 0 2.51445
0.175 0.005 0 0 0 2.46114
0.18 0.005 0 0 0 2.41318
0.185 0.005 0 0 0 2.37004
0.19 0.005 0 0 0 2.33124
0.195 0.005 0 0 0 2.29635
0.2 0.005 0 0 0 2.26498
0.205 0.005 0 0 0 2.23681
0.21 0.005 0 0 0 2.21151
0.215 0.005 0 0 0 2.18882
0.22 0.005 0 0 0 2.16849
0.225 0.005 0 0 0 2.15028
0.23 0.005 0 0 0 2.13401
0.235 0.005 0 0 0 2.11947
0.24 0.005 0 0 0 2.1065
0.245 0.005 0 0 0 2.09493
0.25 0.005 0 0 0 2.08463
0.255 0.005 0 0 0 2.07547
0.26 0.005 0 0 0 2.06731
0.265 0.005 0 0 0 2.06005
0.27 0.005 0 0 0 2.05357
0.275 0.005 0 0 0 2.04779
0.28 0.005 0 0 0 2.0426
0.285 0.005 0 0 0 2.03793
0.29 0.005 0 0 0 2.03369
0.295 0.005 0 0 0 2.0298
0.3 0.005 0 0 0 2.02621
0.305 0.005 0 0 0 2.02284
0.31 0.005 0 0 0 2.01964
0.315 0.005 0 0 0 2.01654
0.32 0.005 0 0 0 2.01348
0.325 0.005 0 0 0 2.01043
0.33 0.005 0 0 0 2.00734
0.335 0.005 0 0 0 2.00415
0.34 0.005 0 0 0 2.00082
0.345 0.005 0 0 0 1.99733
0.35 0.005 0 0 0 1.99362
0.355 0.005 0 0 0 1.98968
0.36 0.005 0 0 0 1.98546
0.365 0.005 0 0 0 1.98094
0.37 0.005 0 0 0 1.97608
0.375 0.005 0 0 0 1.97088
0.38 0.005 0 0 0 1.96529
0.385 0.005 0 0 0 1.95931
0.39 0.005 0 0 0 1.95291
0.395 0.005 0 0 0 1.94608
0.4 0.005 0 0 0 1.9388
0.405 0.005 0 0 0 1.93106
0.41 0.005 0 0 0 1.92284
0.415 0.005 0 0 0 1.91414
0.42 0.005 0 0 0 1.90495
0.425 0.005 0 0 0 1.89526
0.43 0.005 0 0 0 1.88507
0.435 0.005 0 0 0 1.87437
0.44 0.005 0 0 0 1.86316
0.445 0.005 0 0 0 1.85144
0.45 0.005 0 0 0 1.83921
0.455 0.005 0 0 0 1.82648
0.46 0.005 0 0 0 1.81324
0.465 0.005 0 0 0 1.7995
0.47 0.005 0 0 0 1.78527
0.475 0.005 0 0 0 1.77056
0.48 0.005 0 0 0 1.75536
0.485 0.005 0 0 0 1.73969
0.49 0.005 0 0 0 1.72356
0.495 0.005 0 0 0 1.70697
0.5 0.005 0 0 0 1.68995
0.505 0.005 0 0 0 1.6725
0.51 0.005 0 0 0 1.65463
0.515 0.005 0 0 0 1.63636
0.52 0.005 0 0 0 1.6177
0.525 0.005 0 0 0 1.59867
0.53 0.005 0 0 0 1.57928
0.535 0.005 0 0 0 1.55954
0.54 0.005 0 0 0 1.53947
0.545 0.005 0 0 0 1.51909
0.55 0.005 0 0 0 1.49841
0.555 0.005 0 0 0 1.47745
0.56 0.005 0 0 0 1.45622
0.565 0.005 0 0 0 1.43475
0.57 0.005 0 0 0 1.41304
0.575 0.005 0 0 0 1.39112
0.58 0.005 0 0 0 1.36899
0.585 0.005 0 0 0 1.34669
0.59 0.005 0 0 0 1.32421
0.595 0.005 0 0 0 1.30159
0.6 0.005 0 0 0 1.27883
0.605 0.005 0 0 0 1.25595
0.61 0.005 0 0 0 1.23296
0.615 0.005 0 0 0 1.20989
0.62 0.005 0 0 0 1.18674
0.625 0.005 0 0 0 1.16353
0.63 0.005 0 0 0 1.14028
0.635 0.005 0 0 0 1.11699
0.64 0.005 0 0 0 1.09369
0.645 0.005 0 0 0 1.07038
0.65 0.005 0 0 0 1.04708
0.655 0.005 0 0 0 1.0238
0.66 0.005 0 0 0 1.00056
0.665 0.005 0 0 0 0.977352
0.67 0.005 0 0 0 0.954203
0.675 0.005 0 0 0 0.931121
0.68 0.005 0 0 0 0.908115
0.685 0.005 0 0 0 0.885197
0.69 0.005 0 0 0 0.862374
0.695 0.005 0 0 0 0.839658
0.7 0.005 0 0 0 0.817057
0.705 0.005 0 0 0 0.79458
0.71 0.005 0 0 0 0.772235
0.715 0.005 0 0 0 0.750031
0.72 0.005 0 0 0 0.727976
0.725 0.005 0 0 0 0.706078
0.73 0.005 0 0 0 0.684343
0.735 0.005 0 0 0 0.66278
0.74 0.005 0 0 0 0.641396
0.745 0.005 0 0 0 0.620197
0.75 0.005 0 0 0 0.59919
0.755 0.005 0 0 0 0.578383
0.76 0.005 0 0 0 0.557782
0.765 0.005 0 0 0 0.537394
0.77 0.005 0 0 0 0.517224
0.775 0.005 0 0 0 0.497281
0.78 0.005 0 0 0 0.47757
0.785 0.005 0 0 0 0.458099
0.79 0.005 0 0 0 0.438874
0.795 0.005 0 0 0 0.419903
0.8 0.005 0 0 0 0.401192
0.805 0.005 0 0 0 0.382749
0.81 0.005 0 0 0 0.364581
0.815 0.005 0 0 0 0.346696
0.82 0.005 0 0 0 0.329103
0.825 0.005 0 0 0 0.311809
0.83 0.005 0 0 0 0.294824
0.835 0.005 0 0 0 0.278156
0.84 0.005 0 0 0 0.261815
0.845 0.005 0 0 0 0.245811
0.85 0.005 0 0 0 0.230154
0.855 0.005 0 0 0 0.214856
0.86 0.005 0 0 0 0.199928
0.865 0.005 0 0 0 0.185381
0.87 0.005 0 0 0 0.171229
0.875 0.005 0 0 0 0.157485
0.88 0.005 0 0 0 0.144163
0.885 0.005 0 0 0 0.131279
0.89 0.005 0 0 0 0.118847
0.895 0.005 0 0 0 0.106884
0.9 0.005 0 0 0 0.0954085
0.905 0.005 0 0 0 0.0844386
0.91 0.005 0 0 0 0.0739938
0.915 0.005 0 0 0 0.0640951
0.92 0.005 0 0 0 0.0547643
0.925 0.005 0 0 0 0.0460245
0.93 0.005 0 0 0 0.0379001
0.935 0.005 0 0 0 0.0304164
0.94 0.005 0 0 0 0.0236001
0.945 0.005 0 0 0 0.0174784
0.95 0.005 0 0 0 0.0120791
0.955 0.005 0 0 0 0.00742982
0.96 0.005 0 0 0 0.00355671
0.965 0.005 0 0 0 0.000482751
0.97 0.005 0 0 0 -0.00177536
0.975 0.005 0 0 0 -0.00321239
0.98 0.005 0 0 0 -0.00384341
0.985 0.005 0 0 0 -0.00371938
0.99 0.005 0 0 0 -0.00295442
0.995 0.005 0 0 0 -0.0017727
1 0.005 0 0 0 -0.000578263
0 0.01 0 0 -0.000578263 0
0.005 0.01 0 0 0 -326.277
0.01 0.01 -0.179937 0.0774605 -0.000921537 -44.4871
0.015 0.01 -0.18442 -0.0352849 -0.000774605 9.44043
0.02 0.01 -0.155587 -0.0353861 -0.000568688 19.0588
0.025 0.01 -0.12662 -0.0246368 -0.000420744 18.9693
0.03 0.01 -0.103408 -0.0164911 -0.00032232 16.8551
0.035 0.01 -0.085684 -0.0113104 -0.000255833 14.6018
0.04 0.01 -0.0721761 -0.00805867 -0.000209216 12.6391
0.045 0.01 -0.0617494 -0.00595681 -0.000175246 11.0149
0.05 0.01 -0.0535662 -0.00454289 -0.000149648 9.68538
0.055 0.01 -0.0470368 -0.00355412 -0.000129817 8.59411
0.06 0.01 -0.0417477 -0.00283882 -0.000114107 7.69186
0.065 0.01 -0.0374055 -0.0023064 -0.000101429 6.9395
0.07 0.01 -0.0337987 -0.00190058 -9.10425e-05 6.30677
0.075 0.01 -0.0307718 -0.00158503 -8.24232e-05 5.77038
0.08 0.01 -0.0282085 -0.00133548 -7.51921e-05 5.31232
0.085 0.01 -0.0260205 -0.00113522 -6.90683e-05 4.91854
0.09 0.01 -0.0241396 -0.000972471 -6.38397e-05 4.57796
0.095 0.01 -0.0225127 -0.00083871 -5.93435e-05 4.2818
0.1 0.01 -0.0210975 -0.00072767 -5.54525e-05 4.02299
0.105 0.01 -0.0198604 -0.000634663 -5.20666e-05 3.79582
0.11 0.01 -0.0187742 -0.000556127 -4.91058e-05 3.59563
0.115 0.01 -0.0178167 -0.00048932 -4.65053e-05 3.41858
0.12 0.01 -0.0169698 -0.000432109 -4.42125e-05 3.2615
0.125 0.01 -0.0162183 -0.000382814 -4.21841e-05 3.12174
0.13 0.01 -0.0155497 -0.000340101 -4.03842e-05 2.99708
0.135 0.01 -0.0149533 -0.0003029 -3.8783e-05 2.88563
0.14 0.01 -0.0144203 -0.000270346 -3.73551e-05 2.7858
0.145 0.01 -0.013943 -0.000241735 -3.60794e-05 2.69622
0.15 0.01 -0.013515 -0.00021649 -3.49377e-05 2.61572
0.155 0.01 -0.0131306 -0.000194134 -3.39145e-05 2.54329
0.16 0.01 -0.0127851 -0.00017427 -3.29963e-05 2.47806
0.165 0.01 -0.0124741 -0.000156568 -3.21717e-05 2.41925
0.17 0.01 -0.0121941 -0.00014075 -3.14306e-05 2.3662
0.175 0.01 -0.0119419 -0.000126581 -3.07642e-05 2.31832
0.18 0.01 -0.0117147 -0.000113862 -3.01648e-05 2.2751
0.185 0.01 -0.0115098 -0.000102422 -2.96255e-05 2.23606
0.19 0.01 -0.0113252 -9.21177e-05 -2.91405e-05 2.20081
0.195 0.01 -0.0111589 -8.28225e-05 -2.87044e-05 2.16898
0.2 0.01 -0.0110091 -7.4429e-05 -2.83123e-05 2.14024
0.205 0.01 -0.0108741 -6.68437e-05 -2.79601e-05 2.11429
0.21 0.01 -0.0107527 -5.99852e-05 -2.76439e-05 2.09089
0.215 0.01 -0.0106435 -5.37826e-05 -2.73603e-05 2.06977
0.22 0.01 -0.0105454 -4.81738e-05 -2.71061e-05 2.05074
0.225 0.01 -0.0104573 -4.31041e-05 -2.68786e-05 2.03358
0.23 0.01 -0.0103782 -3.85256e-05 -2.66751e-05 2.01813
0.235 0.01 -0.0103072 -3.43956e-05 -2.64934e-05 2.00421
0.24 0.01 -0.0102437 -3.06764e-05 -2.63313e-05 1.99167
0.245 0.01 -0.0101867 -2.73345e-05 -2.61867e-05 1.98039
0.25 0.01 -0.0101357 -2.434e-05 -2.6058e-05 1.97022
0.255 0.01 -0.01009 -2.1666e-05 -2.59435e-05 1.96105
0.26 0.01 -0.0100491 -1.92884e-05 -2.58415e-05 1.95277
0.265 0.01 -0.0100124 -1.71857e-05 -2.57507e-05 1.94529
0.27 0.01 -0.00997932 -1.53381e-05 -2.56698e-05 1.9385
0.275 0.01 -0.00994952 -1.3728e-05 -2.55975e-05 1.93232
0.28 0.01 -0.00992253 -1.23391e-05 -2.55326e-05 1.92666
0.285 0.01 -0.00989794 -1.11567e-05 -2.54742e-05 1.92146
0.29 0.01 -0.00987538 -1.01674e-05 -2.54212e-05 1.91664
0.295 0.01 -0.00985449 -9.3585e-06 -2.53727e-05 1.91213
0.3 0.01 -0.00983495 -8.71871e-06 -2.53278e-05 1.90787
0.305 0.01 -0.00981645 -8.23734e-06 -2.52857e-05 1.90381
0.31 0.01 -0.0097987 -7.9045e-06 -2.52457e-05 1.89989
0.315 0.01 -0.00978142 -7.71094e-06 -2.52069e-05 1.89605
0.32 0.01 -0.00976437 -7.64801e-06 -2.51688e-05 1.89225
0.325 0.01 -0.0097473 -7.70755e-06 -2.51306e-05 1.88845
0.33 0.01 -0.00973 -7.88188e-06 -2.50919e-05 1.88461
0.335 0.01 -0.00971225 -8.16371e-06 -2.50521e-05 1.88068
0.34 0.01 -0.00969385 -8.54611e-06 -2.50105e-05 1.87662
0.345 0.01 -0.00967464 -9.02246e-06 -2.49668e-05 1.87241
0.35 0.01 -0.00965442 -9.58644e-06 -2.49206e-05 1.86801
0.355 0.01 -0.00963306 -1.0232e-05 -2.48712e-05 1.8634
0.36 0.01 -0.00961039 -1.09532e-05 -2.48185e-05 1.85853
0.365 0.01 -0.00958629 -1.17446e-05 -2.4762e-05 1.8534
0.37 0.01 -0.00956062 -1.26006e-05 -2.47013e-05 1.84797
0.375 0.01 -0.00953328 -1.35161e-05 -2.46363e-05 1.84223
0.38 0.01 -0.00950415 -1.44858e-05 -2.45665e-05 1.83616
0.385 0.01 -0.00947315 -1.55049e-05 -2.44917e-05 1.82973
0.39 0.01 -0.00944018 -1.65685e-05 -2.44117e-05 1.82293
0.395 0.01 -0.00940516 -1.7672e-05 -2.43263e-05 1.81574
0.4 0.01 -0.00936803 -1.88109e-05 -2.42353e-05 1.80817
0.405 0.01 -0.00932872 -1.99807e-05 -2.41385e-05 1.80018
0.41 0.01 -0.00928719 -2.11771e-05 -2.40358e-05 1.79178
0.415 0.01 -0.00924338 -2.23961e-05 -2.39271e-05 1.78295
0.42 0.01 -0.00919726 -2.36334e-05 -2.38122e-05 1.77369
0.425 0.01 -0.00914881 -2.48853e-05 -2.36911e-05 1.764
0.43 0.01 -0.00909799 -2.6148e-05 -2.35637e-05 1.75386
0.435 0.01 -0.0090448 -2.74176e-05 -2.34299e-05 1.74328
0.44 0.01 -0.00898922 -2.86908e-05 -2.32898e-05 1.73226
0.445 0.01 -0.00893126 -2.9964e-05 -2.31433e-05 1.72079
0.45 0.01 -0.00887091 -3.1234e-05 -2.29905e-05 1.70888
0.455 0.01 -0.00880819 -3.24976e-05 -2.28313e-05 1.69653
0.46 0.01 -0.00874311 -3.37517e-05 -2.26659e-05 1.68374
0.465 0.01 -0.0086757 -3.49935e-05 -2.24941e-05 1.67051
0.47 0.01 -0.00860598 -3.62202e-05 -2.23163e-05 1.65686
0.475 0.01 -0.00853398 -3.74291e-05 -2.21323e-05 1.64278
0.48 0.01 -0.00845974 -3.86178e-05 -2.19423e-05 1.62829
0.485 0.01 -0.00838331 -3.97839e-05 -2.17464e-05 1.61339
0.49 0.01 -0.00830472 -4.09252e-05 -2.15448e-05 1.59809
0.495 0.01 -0.00822402 -4.20397e-05 -2.13375e-05 1.5824
0.5 0.01 -0.00814128 -4.31254e-05 -2.11247e-05 1.56633
0.505 0.01 -0.00805654 -4.41805e-05 -2.09066e-05 1.54989
0.51 0.01 -0.00796986 -4.52035e-05 -2.06832e-05 1.5331
0.515 0.01 -0.00788131 -4.61929e-05 -2.04549e-05 1.51595
0.52 0.01 -0.00779095 -4.71472e-05 -2.02216e-05 1.49847
0.525 0.01 -0.00769885 -4.80653e-05 -1.99837e-05 1.48067
0.53 0.01 -0.00760507 -4.89462e-05 -1.97413e-05 1.46256
0.535 0.01 -0.0075097 -4.97889e-05 -1.94946e-05 1.44416
0.54 0.01 -0.00741279 -5.05926e-05 -1.92437e-05 1.42547
0.545 0.01 -0.00731443 -5.13566e-05 -1.89889e-05 1.40652
0.55 0.01 -0.00721469 -5.20805e-05 -1.87304e-05 1.38731
0.555 0.01 -0.00711364 -5.27638e-05 -1.84684e-05 1.36786
0.56 0.01 -0.00701136 -5.34063e-05 -1.82031e-05 1.34818
0.565 0.01 -0.00690794 -5.40077e-05 -1.79346e-05 1.3283
0.57 0.01 -0.00680343 -5.4568e-05 -1.76633e-05 1.30821
0.575 0.01 -0.00669793 -5.50873e-05 -1.73892e-05 1.28794
0.58 0.01 -0.00659151 -5.55657e-05 -1.71127e-05 1.26751
0.585 0.01 -0.00648424 -5.60035e-05 -1.68338e-05 1.24691
0.59 0.01 -0.0063762 -5.64009e-05 -1.65529e-05 1.22618
0.595 0.01 -0.00626747 -5.67585e-05 -1.62701e-05 1.20532
0.6 0.01 -0.00615812 -5.70767e-05 -1.59856e-05 1.18435
0.605 0.01 -0.00604821 -5.7356e-05 -1.56996e-05 1.16328
0.61 0.01 -0.00593784 -5.75971e-05 -1.54122e-05 1.14212
0.615 0.01 -0.00582705 -5.78008e-05 -1.51238e-05 1.12089
0.62 0.01 -0.00571594 -5.79677e-05 -1.48345e-05 1.0996
0.625 0.01 -0.00560455 -5.80987e-05 -1.45444e-05 1.07826
0.63 0.01 -0.00549296 -5.81945e-05 -1.42537e-05 1.05688
0.635 0.01 -0.00538124 -5.82561e-05 -1.39626e-05 1.03548
0.64 0.01 -0.00526944 -5.82843e-05 -1.36713e-05 1.01407
0.645 0.01 -0.00515763 -5.82801e-05 -1.338e-05 0.992664
0.65 0.01 -0.00504587 -5.82444e-05 -1.30887e-05 0.971265
0.655 0.01 -0.00493421 -5.81782e-05 -1.27977e-05 0.949889
0.66 0.01 -0.00482271 -5.80824e-05 -1.25071e-05 0.928544
0.665 0.01 -0.00471143 -5.79579e-05 -1.22171e-05 0.907242
0.67 0.01 -0.00460042 -5.78057e-05 -1.19277e-05 0.885992
0.675 0.01 -0.00448973 -5.76268e-05 -1.16392e-05 0.864803
0.68 0.01 -0.00437941 -5.7422e-05 -1.13516e-05 0.843686
0.685 0.01 -0.00426951 -5.71922e-05 -1.10651e-05 0.822648
0.69 0.01 -0.00416007 -5.69384e-05 -1.07798e-05 0.801699
0.695 0.01 -0.00405113 -5.66613e-05 -1.04959e-05 0.780846
0.7 0.01 -0.00394275 -5.63617e-05 -1.02133e-05 0.760098
0.705 0.01 -0.00383495 -5.60404e-05 -9.93237e-06 0.739462
0.71 0.01 -0.00372779 -5.56982e-05 -9.65306e-06 0.718947
0.715 0.01 -0.0036213 -5.53357e-05 -9.37551e-06 0.698559
0.72 0.01 -0.00351552 -5.49535e-05 -9.09981e-06 0.678305
0.725 0.01 -0.00341048 -5.45522e-05 -8.82608e-06 0.658192
0.73 0.01 -0.00330622 -5.41324e-05 -8.55439e-06 0.638228
0.735 0.01 -0.00320278 -5.36944e-05 -8.28485e-06 0.618418
0.74 0.01 -0.00310019 -5.32388e-05 -8.01754e-06 0.598769
0.745 0.01 -0.00299848 -5.27657e-05 -7.75255e-06 0.579287
0.75 0.01 -0.00289768 -5.22756e-05 -7.48996e-06 0.559979
0.755 0.01 -0.00279784 -5.17686e-05 -7.22987e-06 0.540851
0.76 0.01 -0.00269897 -5.12449e-05 -6.97235e-06 0.521909
0.765 0.01 -0.00260111 -5.07045e-05 -6.71749e-06 0.503158
0.77 0.01 -0.0025043 -5.01474e-05 -6.46537e-06 0.484606
0.775 0.01 -0.00240856 -4.95737e-05 -6.21607e-06 0.466257
0.78 0.01 -0.00231393 -4.89831e-05 -5.96968e-06 0.448119
0.785 0.01 -0.00222044 -4.83754e-05 -5.72629e-06 0.430197
0.79 0.01 -0.00212812 -4.77505e-05 -5.48598e-06 0.412499
0.795 0.01 -0.00203701 -4.71078e-05 -5.24883e-06 0.395029
0.8 0.01 -0.00194714 -4.64471e-05 -5.01494e-06 0.377796
0.805 0.01 -0.00185855 -4.57677e-05 -4.78439e-06 0.360806
0.81 0.01 -0.00177126 -4.50691e-05 -4.55729e-06 0.344065
0.815 0.01 -0.00168533 -4.43508e-05 -4.33373e-06 0.327582
0.82 0.01 -0.00160079 -4.36118e-05 -4.11381e-06 0.311364
0.825 0.01 -0.00151768 -4.28515e-05 -3.89764e-06 0.295418
0.83 0.01 -0.00143605 -4.20689e-05 -3.68532e-06 0.279753
0.835 0.01 -0.00135592 -4.1263e-05 -3.47697e-06 0.264377
0.84 0.01 -0.00127736 -4.04328e-05 -3.2727e-06 0.249299
0.845 0.01 -0.00120041 -3.95772e-05 -3.07265e-06 0.234528
0.85 0.01 -0.00112513 -3.86949e-05 -2.87694e-06 0.220075
0.855 0.01 -0.00105155 -3.77845e-05 -2.68571e-06 0.205948
0.86 0.01 -0.000979743 -3.68447e-05 -2.4991e-06 0.19216
0.865 0.01 -0.000909763 -3.58739e-05 -2.31727e-06 0.178721
0.87 0.01 -0.00084167 -3.48705e-05 -2.14037e-06 0.165643
0.875 0.01 -0.000775531 -3.38326e-05 -1.96857e-06 0.152938
0.88 0.01 -0.000711411 -3.27584e-05 -1.80204e-06 0.14062
0.885 0.01 -0.000649383 -3.1646e-05 -1.64098e-06 0.128701
0.89 0.01 -0.000589521 -3.04931e-05 -1.48558e-06 0.117197
0.895 0.01 -0.000531905 -2.92974e-05 -1.33605e-06 0.106122
0.9 0.01 -0.000476617 -2.80566e-05 -1.1926e-06 0.0954915
0.905 0.01 -0.000423746 -2.6768e-05 -1.05548e-06 0.0853228
0.91 0.01 -0.000373383 -2.54289e-05 -9.24918e-07 0.0756328
0.915 0.01 -0.000325626 -2.40364e-05 -8.01184e-07 0.0664395
0.92 0.01 -0.000280575 -2.25877e-05 -6.84549e-07 0.0577616
0.925 0.01 -0.000238337 -2.10798e-05 -5.75301e-07 0.0496185
0.93 0.01 -0.000199023 -1.95096e-05 -4.73746e-07 0.0420298
0.935 0.01 -0.000162746 -1.78745e-05 -3.802e-07 0.0350159
0.94 0.01 -0.000129623 -1.6172e-05 -2.94996e-07 0.0285967
0.945 0.01 -9.97725e-05 -1.44007e-05 -2.18475e-07 0.0227921
0.95 0.01 -7.33113e-05 -1.25602e-05 -1.50984e-07 0.0176207
0.955 0.01 -5.03507e-05 -1.06525e-05 -9.28687e-08 0.0130988
0.96 0.01 -3.09905e-05 -8.68343e-06 -4.44553e-08 0.00923925
0.965 0.01 -1.5309e-05 -6.66473e-06 -6.03131e-09 0.00604892
0.97 0.01 -3.34834e-06 -4.61861e-06 2.21945e-08 0.00352536
0.975 0.01 4.90897e-06 -2.58481e-06 4.01567e-08 0.00165187
0.98 0.01 9.57705e-06 -6.33554e-07 4.8044e-08 0.000390166
0.985 0.01 1.09242e-05 1.11138e-06 4.64931e-08 -0.000329823
0.99 0.01 9.46243e-06 2.43343e-06 3.69306e-08 -0.000622199
0.995 0.01 6.07965e-06 2.97023e-06 2.21589e-08 -0.000652819
1 0.01 2.21257e-06 2.21589e-06 7.22827e-09 -0.000614873
0 0.015 0 0 -0.00177006 0
0.005 0.015 0 0 0 -256.051
0.01 0.015 -0.152601 0.18442 -0.00179937 -79.367
0.015 0.015 -0.205569 -0.0243491 -0.0018442 -16.6673
0.02 0.015 -0.203607 -0.0578003 -0.00155587 2.41415
0.025 0.015 -0.183637 -0.0521793 -0.0012662 8.12029
0.03 0.015 -0.160624 -0.0409361 -0.00103408 9.50402
0.035 0.015 -0.139531 -0.031232 -0.00085684 9.41828
0.04 0.015 -0.121545 -0.0239346 -0.000721761 8.84679
0.045 0.015 -0.10658 -0.0186099 -0.000617494 8.14954
0.05 0.015 -0.0941996 -0.0147126 -0.000535662 7.46023
0.055 0.015 -0.0839341 -0.0118185 -0.000470368 6.82573
0.06 0.015 -0.0753736 -0.00963129 -0.000417476 6.25867
0.065 0.015 -0.0681854 -0.00794894 -0.000374054 5.75831
0.07 0.015 -0.0621063 -0.00663368 -0.000337986 5.31897
0.075 0.015 -0.0569293 -0.00559015 -0.000307717 4.93365
0.08 0.015 -0.0524917 -0.00475124 -0.000282084 4.5954
0.085 0.015 -0.0486649 -0.00406882 -0.000260204 4.29792
0.09 0.015 -0.0453464 -0.00350778 -0.000241396 4.03565
0.095 0.015 -0.0424543 -0.00304212 -0.000225126 3.80383
0.1 0.015 -0.0399221 -0.00265224 -0.000210974 3.59837
0.105 0.015 -0.0376959 -0.00232324 -0.000198603 3.41579
0.11 0.015 -0.0357312 -0.0020436 -0.000187741 3.25315
0.115 0.015 -0.0339916 -0.00180434 -0.000178167 3.10792
0.12 0.015 -0.0324465 -0.00159837 -0.000169698 2.97796
0.125 0.015 -0.0310704 -0.00142009 -0.000162183 2.86142
0.13 0.015 -0.029842 -0.00126496 -0.000155496 2.75674
0.135 0.015 -0.028743 -0.00112934 -0.000149533 2.66254
0.14 0.015 -0.0277579 -0.00101026 -0.000144203 2.57766
0.145 0.015 -0.0268736 -0.000905282 -0.00013943 2.50108
0.15 0.015 -0.0260785 -0.000812392 -0.00013515 2.4319
0.155 0.015 -0.0253628 -0.000729921 -0.000131306 2.36934
0.16 0.015 -0.024718 -0.000656476 -0.00012785 2.31274
0.165 0.015 -0.0241366 -0.000590885 -0.000124741 2.26148
0.17 0.015 -0.023612 -0.000532162 -0.000121941 2.21503
0.175 0.015 -0.0231384 -0.000479468 -0.000119419 2.17293
0.18 0.015 -0.0227108 -0.000432092 -0.000117147 2.13475
0.185 0.015 -0.0223246 -0.000389422 -0.000115098 2.10013
0.19 0.015 -0.0219759 -0.000350934 -0.000113252 2.06872
0.195 0.015 -0.021661 -0.000316177 -0.000111589 2.04022
0.2 0.015 -0.0213767 -0.000284759 -0.000110091 2.01437
0.205 0.015 -0.0211201 -0.000256341 -0.000108742 1.99092
0.21 0.015 -0.0208886 -0.000230624 -0.000107527 1.96964
0.215 0.015 -0.0206799 -0.000207351 -0.000106436 1.95035
0.22 0.015 -0.0204917 -0.000186294 -0.000105454 1.93284
0.225 0.015 -0.0203222 -0.000167251 -0.000104573 1.91695
0.23 0.015 -0.0201696 -0.000150047 -0.000103782 1.90254
0.235 0.015 -0.0200321 -0.000134523 -0.000103073 1.88945
0.24 0.015 -0.0199085 -0.000120542 -0.000102437 1.87757
0.245 0.015 -0.0197972 -0.000107977 -0.000101868 1.86676
0.25 0.015 -0.0196969 -9.6718e-05 -0.000101358 1.85692
0.255 0.015 -0.0196066 -8.66655e-05 -0.000100901 1.84794
0.26 0.015 -0.0195252 -7.77295e-05 -0.000100492 1.83974
0.265 0.015 -0.0194516 -6.98291e-05 -0.000100124 1.83222
0.27 0.015 -0.0193848 -6.28909e-05 -9.97938e-05 1.82529
0.275 0.015 -0.0193241 -5.68483e-05 -9.94958e-05 1.8189
0.28 0.015 -0.0192687 -5.16405e-05 -9.92259e-05 1.81295
0.285 0.015 -0.0192177 -4.7212e-05 -9.898e-05 1.80739
0.29 0.015 -0.0191704 -4.35118e-05 -9.87545e-05 1.80216
0.295 0.015 -0.0191262 -4.0493e-05 -9.85456e-05 1.79719
0.3 0.015 -0.0190846 -3.81121e-05 -9.83503e-05 1.79243
0.305 0.015 -0.0190448 -3.63288e-05 -9.81653e-05 1.78783
0.31 0.015 -0.0190064 -3.51058e-05 -9.79878e-05 1.78335
0.315 0.015 -0.0189688 -3.44077e-05 -9.78151e-05 1.77893
0.32 0.015 -0.0189316 -3.42019e-05 -9.76446e-05 1.77454
0.325 0.015 -0.0188943 -3.44572e-05 -9.74739e-05 1.77014
0.33 0.015 -0.0188565 -3.51445e-05 -9.73009e-05 1.76568
0.335 0.015 -0.0188178 -3.62359e-05 -9.71234e-05 1.76115
0.34 0.015 -0.0187779 -3.77051e-05 -9.69395e-05 1.7565
0.345 0.015 -0.0187364 -3.9527e-05 -9.67473e-05 1.7517
0.35 0.015 -0.018693 -4.16774e-05 -9.65452e-05 1.74673
0.355 0.015 -0.0186474 -4.41333e-05 -9.63316e-05 1.74157
0.36 0.015 -0.0185992 -4.68724e-05 -9.6105e-05 1.73618
0.365 0.015 -0.0185484 -4.98734e-05 -9.5864e-05 1.73055
0.37 0.015 -0.0184946 -5.31155e-05 -9.56073e-05 1.72466
0.375 0.015 -0.0184376 -5.65788e-05 -9.53339e-05 1.71849
0.38 0.015 -0.0183772 -6.0244e-05 -9.50427e-05 1.71201
0.385 0.015 -0.0183133 -6.40922e-05 -9.47326e-05 1.70523
0.39 0.015 -0.0182457 -6.81054e-05 -9.44029e-05 1.69812
0.395 0.015 -0.0181741 -7.22659e-05 -9.40528e-05 1.69067
0.4 0.015 -0.0180987 -7.65565e-05 -9.36815e-05 1.68288
0.405 0.015 -0.0180191 -8.09606e-05 -9.32884e-05 1.67472
0.41 0.015 -0.0179353 -8.5462e-05 -9.28731e-05 1.6662
0.415 0.015 -0.0178472 -9.00451e-05 -9.2435e-05 1.65731
0.42 0.015 -0.0177549 -9.46947e-05 -9.19739e-05 1.64804
0.425 0.015 -0.0176581 -9.9396e-05 -9.14894e-05 1.63839
0.43 0.015 -0.0175569 -0.000104135 -9.09812e-05 1.62836
0.435 0.015 -0.0174512 -0.000108898 -9.04493e-05 1.61794
0.44 0.015 -0.017341 -0.000113671 -8.98935e-05 1.60714
0.445 0.015 -0.0172264 -0.000118441 -8.93139e-05 1.59595
0.45 0.015 -0.0171074 -0.000123197 -8.87104e-05 1.58438
0.455 0.015 -0.0169838 -0.000127927 -8.80832e-05 1.57242
0.46 0.015 -0.0168559 -0.000132619 -8.74324e-05 1.56009
0.465 0.015 -0.0167237 -0.000137263 -8.67583e-05 1.54738
0.47 0.015 -0.0165871 -0.000141847 -8.60611e-05 1.5343
0.475 0.015 -0.0164462 -0.000146363 -8.53411e-05 1.52086
0.48 0.015 -0.0163012 -0.000150802 -8.45987e-05 1.50706
0.485 0.015 -0.0161521 -0.000155154 -8.38344e-05 1.49292
0.49 0.015 -0.015999 -0.000159412 -8.30485e-05 1.47843
0.495 0.015 -0.0158419 -0.000163567 -8.22415e-05 1.46361
0.5 0.015 -0.0156811 -0.000167614 -8.14141e-05 1.44846
0.505 0.015 -0.0155165 -0.000171544 -8.05666e-05 1.43299
0.51 0.015 -0.0153483 -0.000175353 -7.96999e-05 1.41723
0.515 0.015 -0.0151767 -0.000179035 -7.88143e-05 1.40116
0.52 0.015 -0.0150017 -0.000182585 -7.79107e-05 1.38481
0.525 0.015 -0.0148234 -0.000185999 -7.69897e-05 1.36819
0.53 0.015 -0.0146421 -0.000189273 -7.60519e-05 1.35131
0.535 0.015 -0.0144578 -0.000192403 -7.50982e-05 1.33418
0.54 0.015 -0.0142706 -0.000195386 -7.41291e-05 1.3168
0.545 0.015 -0.0140808 -0.000198221 -7.31455e-05 1.29921
0.55 0.015 -0.0138884 -0.000200905 -7.2148e-05 1.28139
0.555 0.015 -0.0136936 -0.000203438 -7.11375e-05 1.26338
0.56 0.015 -0.0134965 -0.000205817 -7.01148e-05 1.24517
0.565 0.015 -0.0132973 -0.000208042 -6.90805e-05 1.22679
0.57 0.015 -0.0130961 -0.000210114 -6.80354e-05 1.20824
0.575 0.015 -0.0128931 -0.000212032 -6.69804e-05 1.18954
0.58 0.015 -0.0126883 -0.000213797 -6.59161e-05 1.1707
0.585 0.015 -0.0124821 -0.000215411 -6.48434e-05 1.15173
0.59 0.015 -0.0122744 -0.000216873 -6.3763e-05 1.13264
0.595 0.015 -0.0120654 -0.000218187 -6.26757e-05 1.11345
0.6 0.015 -0.0118553 -0.000219353 -6.15821e-05 1.09416
0.605 0.015 -0.0116442 -0.000220375 -6.04831e-05 1.0748
0.61 0.015 -0.0114323 -0.000221254 -5.93793e-05 1.05537
0.615 0.015 -0.0112196 -0.000221992 -5.82714e-05 1.03587
0.62 0.015 -0.0110063 -0.000222594 -5.71602e-05 1.01633
0.625 0.015 -0.0107925 -0.000223061 -5.60463e-05 0.996758
0.63 0.015 -0.0105784 -0.000223397 -5.49304e-05 0.977156
0.635 0.015 -0.0103641 -0.000223605 -5.38132e-05 0.957539
0.64 0.015 -0.0101496 -0.000223689 -5.26952e-05 0.937917
0.645 0.015 -0.00993515 -0.000223651 -5.1577e-05 0.9183
0.65 0.015 -0.00972081 -0.000223496 -5.04594e-05 0.898696
0.655 0.015 -0.00950668 -0.000223227 -4.93428e-05 0.879116
0.66 0.015 -0.00929288 -0.000222846 -4.82278e-05 0.859568
0.665 0.015 -0.00907951 -0.000222359 -4.7115e-05 0.840062
0.67 0.015 -0.00886666 -0.000221768 -4.60049e-05 0.820605
0.675 0.015 -0.00865443 -0.000221077 -4.4898e-05 0.801206
0.68 0.015 -0.00844292 -0.000220289 -4.37947e-05 0.781873
0.685 0.015 -0.00823221 -0.000219407 -4.26957e-05 0.762613
0.69 0.015 -0.00802239 -0.000218435 -4.16012e-05 0.743435
0.695 0.015 -0.00781353 -0.000217375 -4.05118e-05 0.724344
0.7 0.015 -0.00760573 -0.000216231 -3.9428e-05 0.705349
0.705 0.015 -0.00739906 -0.000215006 -3.835e-05 0.686456
0.71 0.015 -0.0071936 -0.000213701 -3.72784e-05 0.667672
0.715 0.015 -0.00698941 -0.00021232 -3.62135e-05 0.649003
0.72 0.015 -0.00678657 -0.000210865 -3.51556e-05 0.630455
0.725 0.015 -0.00658515 -0.000209338 -3.41052e-05 0.612034
0.73 0.015 -0.00638522 -0.00020774 -3.30626e-05 0.593747
0.735 0.015 -0.00618684 -0.000206074 -3.20282e-05 0.5756
0.74 0.015 -0.00599007 -0.00020434 -3.10022e-05 0.557597
0.745 0.015 -0.00579498 -0.000202541 -2.99851e-05 0.539745
0.75 0.015 -0.00560163 -0.000200676 -2.89772e-05 0.522049
0.755 0.015 -0.00541008 -0.000198747 -2.79787e-05 0.504515
0.76 0.015 -0.0052204 -0.000196755 -2.699e-05 0.487149
0.765 0.015 -0.00503264 -0.000194698 -2.60114e-05 0.469955
0.77 0.015 -0.00484686 -0.000192578 -2.50432e-05 0.45294
0.775 0.015 -0.00466313 -0.000190394 -2.40858e-05 0.436109
0.78 0.015 -0.0044815 -0.000188145 -2.31395e-05 0.419468
0.785 0.015 -0.00430205 -0.00018583 -2.22046e-05 0.403022
0.79 0.015 -0.00412483 -0.000183449 -2.12814e-05 0.386778
0.795 0.015 -0.0039499 -0.000181 -2.03703e-05 0.370741