Title=" Lid Driven Flow"
VARIABLES="X","Y","U","V","psi","xi"
ZONE T= "BOX", I= 201, J=201, F=POINT
0 0 0 0 0.00199339 0
0.005 0 0 0 0 0
0.01 0 0 0 0 0
0.015 0 0 0 0 161.891
0.02 0 0 0 0 176.126
0.025 0 0 0 0 155.616
0.03 0 0 0 0 133.24
0.035 0 0 0 0 115.734
0.04 0 0 0 0 102.893
0.045 0 0 0 0 93.3704
0.05 0 0 0 0 86.0536
0.055 0 0 0 0 80.2097
0.06 0 0 0 0 75.3798
0.065 0 0 0 0 71.2754
0.07 0 0 0 0 67.7091
0.075 0 0 0 0 64.5551
0.08 0 0 0 0 61.7256
0.085 0 0 0 0 59.1578
0.09 0 0 0 0 56.8056
0.095 0 0 0 0 54.6346
0.1 0 0 0 0 52.6182
0.105 0 0 0 0 50.736
0.11 0 0 0 0 48.9718
0.115 0 0 0 0 47.3127
0.12 0 0 0 0 45.748
0.125 0 0 0 0 44.269
0.13 0 0 0 0 42.8683
0.135 0 0 0 0 41.5395
0.14 0 0 0 0 40.2773
0.145 0 0 0 0 39.0767
0.15 0 0 0 0 37.9336
0.155 0 0 0 0 36.844
0.16 0 0 0 0 35.8044
0.165 0 0 0 0 34.8117
0.17 0 0 0 0 33.8628
0.175 0 0 0 0 32.9549
0.18 0 0 0 0 32.0855
0.185 0 0 0 0 31.2522
0.19 0 0 0 0 30.4526
0.195 0 0 0 0 29.6847
0.2 0 0 0 0 28.9463
0.205 0 0 0 0 28.2357
0.21 0 0 0 0 27.5508
0.215 0 0 0 0 26.8901
0.22 0 0 0 0 26.252
0.225 0 0 0 0 25.6348
0.23 0 0 0 0 25.0371
0.235 0 0 0 0 24.4575
0.24 0 0 0 0 23.8948
0.245 0 0 0 0 23.3477
0.25 0 0 0 0 22.8151
0.255 0 0 0 0 22.2959
0.26 0 0 0 0 21.789
0.265 0 0 0 0 21.2935
0.27 0 0 0 0 20.8086
0.275 0 0 0 0 20.3333
0.28 0 0 0 0 19.8669
0.285 0 0 0 0 19.4087
0.29 0 0 0 0 18.9581
0.295 0 0 0 0 18.5143
0.3 0 0 0 0 18.0769
0.305 0 0 0 0 17.6454
0.31 0 0 0 0 17.2191
0.315 0 0 0 0 16.7979
0.32 0 0 0 0 16.3811
0.325 0 0 0 0 15.9686
0.33 0 0 0 0 15.5601
0.335 0 0 0 0 15.1552
0.34 0 0 0 0 14.7538
0.345 0 0 0 0 14.3557
0.35 0 0 0 0 13.9607
0.355 0 0 0 0 13.5688
0.36 0 0 0 0 13.1798
0.365 0 0 0 0 12.7938
0.37 0 0 0 0 12.4107
0.375 0 0 0 0 12.0305
0.38 0 0 0 0 11.6533
0.385 0 0 0 0 11.2791
0.39 0 0 0 0 10.9081
0.395 0 0 0 0 10.5403
0.4 0 0 0 0 10.1759
0.405 0 0 0 0 9.81499
0.41 0 0 0 0 9.45782
0.415 0 0 0 0 9.10455
0.42 0 0 0 0 8.75536
0.425 0 0 0 0 8.41048
0.43 0 0 0 0 8.07012
0.435 0 0 0 0 7.73449
0.44 0 0 0 0 7.40385
0.445 0 0 0 0 7.07841
0.45 0 0 0 0 6.75841
0.455 0 0 0 0 6.44408
0.46 0 0 0 0 6.13566
0.465 0 0 0 0 5.83337
0.47 0 0 0 0 5.53744
0.475 0 0 0 0 5.24806
0.48 0 0 0 0 4.96544
0.485 0 0 0 0 4.68976
0.49 0 0 0 0 4.42122
0.495 0 0 0 0 4.15995
0.5 0 0 0 0 3.90611
0.505 0 0 0 0 3.65983
0.51 0 0 0 0 3.42122
0.515 0 0 0 0 3.19036
0.52 0 0 0 0 2.96733
0.525 0 0 0 0 2.75219
0.53 0 0 0 0 2.54496
0.535 0 0 0 0 2.34566
0.54 0 0 0 0 2.15428
0.545 0 0 0 0 1.9708
0.55 0 0 0 0 1.79517
0.555 0 0 0 0 1.62732
0.56 0 0 0 0 1.46719
0.565 0 0 0 0 1.31466
0.57 0 0 0 0 1.16962
0.575 0 0 0 0 1.03195
0.58 0 0 0 0 0.901491
0.585 0 0 0 0 0.778096
0.59 0 0 0 0 0.661594
0.595 0 0 0 0 0.551805
0.6 0 0 0 0 0.44854
0.605 0 0 0 0 0.351602
0.61 0 0 0 0 0.260788
0.615 0 0 0 0 0.175889
0.62 0 0 0 0 0.096691
0.625 0 0 0 0 0.0229764
0.63 0 0 0 0 -0.0454739
0.635 0 0 0 0 -0.108881
0.64 0 0 0 0 -0.167465
0.645 0 0 0 0 -0.221448
0.65 0 0 0 0 -0.271049
0.655 0 0 0 0 -0.316487
0.66 0 0 0 0 -0.357976
0.665 0 0 0 0 -0.395729
0.67 0 0 0 0 -0.429957
0.675 0 0 0 0 -0.460864
0.68 0 0 0 0 -0.488652
0.685 0 0 0 0 -0.513517
0.69 0 0 0 0 -0.535651
0.695 0 0 0 0 -0.55524
0.7 0 0 0 0 -0.572465
0.705 0 0 0 0 -0.587498
0.71 0 0 0 0 -0.600508
0.715 0 0 0 0 -0.611654
0.72 0 0 0 0 -0.621087
0.725 0 0 0 0 -0.628951
0.73 0 0 0 0 -0.63538
0.735 0 0 0 0 -0.640499
0.74 0 0 0 0 -0.644422
0.745 0 0 0 0 -0.647255
0.75 0 0 0 0 -0.64909
0.755 0 0 0 0 -0.650012
0.76 0 0 0 0 -0.650091
0.765 0 0 0 0 -0.64939
0.77 0 0 0 0 -0.647957
0.775 0 0 0 0 -0.645833
0.78 0 0 0 0 -0.643046
0.785 0 0 0 0 -0.639616
0.79 0 0 0 0 -0.635552
0.795 0 0 0 0 -0.630857
0.8 0 0 0 0 -0.625525
0.805 0 0 0 0 -0.619542
0.81 0 0 0 0 -0.612891
0.815 0 0 0 0 -0.605549
0.82 0 0 0 0 -0.597489
0.825 0 0 0 0 -0.588682
0.83 0 0 0 0 -0.579098
0.835 0 0 0 0 -0.568709
0.84 0 0 0 0 -0.557484
0.845 0 0 0 0 -0.545398
0.85 0 0 0 0 -0.532427
0.855 0 0 0 0 -0.518554
0.86 0 0 0 0 -0.503765
0.865 0 0 0 0 -0.488055
0.87 0 0 0 0 -0.471426
0.875 0 0 0 0 -0.453887
0.88 0 0 0 0 -0.435457
0.885 0 0 0 0 -0.416167
0.89 0 0 0 0 -0.396057
0.895 0 0 0 0 -0.375177
0.9 0 0 0 0 -0.353592
0.905 0 0 0 0 -0.331378
0.91 0 0 0 0 -0.308623
0.915 0 0 0 0 -0.285431
0.92 0 0 0 0 -0.261917
0.925 0 0 0 0 -0.238212
0.93 0 0 0 0 -0.214461
0.935 0 0 0 0 -0.190824
0.94 0 0 0 0 -0.167478
0.945 0 0 0 0 -0.144616
0.95 0 0 0 0 -0.122445
0.955 0 0 0 0 -0.101194
0.96 0 0 0 0 -0.0811092
0.965 0 0 0 0 -0.0624546
0.97 0 0 0 0 -0.0455152
0.975 0 0 0 0 -0.0305936
0.98 0 0 0 0 -0.0180059
0.985 0 0 0 0 -0.00806924
0.99 0 0 0 0 -0.00107266
0.995 0 0 0 0 0.00279235
1 0 0 0 0 0.00359011
0 0.005 0 0 0 0
0.005 0.005 0 0 0 0
0.01 0.005 0 0 0 73.7267
0.015 0.005 0 0 0 62.032
0.02 0.005 0 0 0 45.6365
0.025 0.005 0 0 0 33.8423
0.03 0.005 0 0 0 25.9514
0.035 0.005 0 0 0 20.5614
0.04 0.005 0 0 0 16.7222
0.045 0.005 0 0 0 13.8727
0.05 0.005 0 0 0 11.6848
0.055 0.005 0 0 0 9.96057
0.06 0.005 0 0 0 8.57491
0.065 0.005 0 0 0 7.44507
0.07 0.005 0 0 0 6.51373
0.075 0.005 0 0 0 5.73965
0.08 0.005 0 0 0 5.09222
0.085 0.005 0 0 0 4.54811
0.09 0.005 0 0 0 4.08913
0.095 0.005 0 0 0 3.70093
0.1 0.005 0 0 0 3.37196
0.105 0.005 0 0 0 3.09287
0.11 0.005 0 0 0 2.85603
0.115 0.005 0 0 0 2.65512
0.12 0.005 0 0 0 2.48494
0.125 0.005 0 0 0 2.34113
0.13 0.005 0 0 0 2.22007
0.135 0.005 0 0 0 2.1187
0.14 0.005 0 0 0 2.03445
0.145 0.005 0 0 0 1.96514
0.15 0.005 0 0 0 1.90893
0.155 0.005 0 0 0 1.86426
0.16 0.005 0 0 0 1.82978
0.165 0.005 0 0 0 1.80435
0.17 0.005 0 0 0 1.78699
0.175 0.005 0 0 0 1.77686
0.18 0.005 0 0 0 1.77324
0.185 0.005 0 0 0 1.77548
0.19 0.005 0 0 0 1.78305
0.195 0.005 0 0 0 1.79547
0.2 0.005 0 0 0 1.81231
0.205 0.005 0 0 0 1.83323
0.21 0.005 0 0 0 1.85788
0.215 0.005 0 0 0 1.88598
0.22 0.005 0 0 0 1.91727
0.225 0.005 0 0 0 1.95152
0.23 0.005 0 0 0 1.98851
0.235 0.005 0 0 0 2.02805
0.24 0.005 0 0 0 2.06997
0.245 0.005 0 0 0 2.11408
0.25 0.005 0 0 0 2.16024
0.255 0.005 0 0 0 2.20828
0.26 0.005 0 0 0 2.25808
0.265 0.005 0 0 0 2.30949
0.27 0.005 0 0 0 2.36237
0.275 0.005 0 0 0 2.41659
0.28 0.005 0 0 0 2.47202
0.285 0.005 0 0 0 2.52853
0.29 0.005 0 0 0 2.586
0.295 0.005 0 0 0 2.64429
0.3 0.005 0 0 0 2.70327
0.305 0.005 0 0 0 2.76283
0.31 0.005 0 0 0 2.82282
0.315 0.005 0 0 0 2.88312
0.32 0.005 0 0 0 2.94359
0.325 0.005 0 0 0 3.00411
0.33 0.005 0 0 0 3.06454
0.335 0.005 0 0 0 3.12474
0.34 0.005 0 0 0 3.18459
0.345 0.005 0 0 0 3.24395
0.35 0.005 0 0 0 3.30268
0.355 0.005 0 0 0 3.36064
0.36 0.005 0 0 0 3.4177
0.365 0.005 0 0 0 3.47373
0.37 0.005 0 0 0 3.52859
0.375 0.005 0 0 0 3.58214
0.38 0.005 0 0 0 3.63425
0.385 0.005 0 0 0 3.6848
0.39 0.005 0 0 0 3.73365
0.395 0.005 0 0 0 3.78066
0.4 0.005 0 0 0 3.82573
0.405 0.005 0 0 0 3.86873
0.41 0.005 0 0 0 3.90953
0.415 0.005 0 0 0 3.94802
0.42 0.005 0 0 0 3.9841
0.425 0.005 0 0 0 4.01765
0.43 0.005 0 0 0 4.04857
0.435 0.005 0 0 0 4.07677
0.44 0.005 0 0 0 4.10216
0.445 0.005 0 0 0 4.12464
0.45 0.005 0 0 0 4.14415
0.455 0.005 0 0 0 4.1606
0.46 0.005 0 0 0 4.17394
0.465 0.005 0 0 0 4.1841
0.47 0.005 0 0 0 4.19103
0.475 0.005 0 0 0 4.19469
0.48 0.005 0 0 0 4.19504
0.485 0.005 0 0 0 4.19205
0.49 0.005 0 0 0 4.18571
0.495 0.005 0 0 0 4.176
0.5 0.005 0 0 0 4.16293
0.505 0.005 0 0 0 4.14648
0.51 0.005 0 0 0 4.12669
0.515 0.005 0 0 0 4.10356
0.52 0.005 0 0 0 4.07714
0.525 0.005 0 0 0 4.04745
0.53 0.005 0 0 0 4.01456
0.535 0.005 0 0 0 3.9785
0.54 0.005 0 0 0 3.93936
0.545 0.005 0 0 0 3.89719
0.55 0.005 0 0 0 3.85208
0.555 0.005 0 0 0 3.80411
0.56 0.005 0 0 0 3.75338
0.565 0.005 0 0 0 3.69999
0.57 0.005 0 0 0 3.64404
0.575 0.005 0 0 0 3.58565
0.58 0.005 0 0 0 3.52494
0.585 0.005 0 0 0 3.46202
0.59 0.005 0 0 0 3.39704
0.595 0.005 0 0 0 3.33011
0.6 0.005 0 0 0 3.26137
0.605 0.005 0 0 0 3.19097
0.61 0.005 0 0 0 3.11904
0.615 0.005 0 0 0 3.04574
0.62 0.005 0 0 0 2.9712
0.625 0.005 0 0 0 2.89558
0.63 0.005 0 0 0 2.81901
0.635 0.005 0 0 0 2.74166
0.64 0.005 0 0 0 2.66366
0.645 0.005 0 0 0 2.58516
0.65 0.005 0 0 0 2.50631
0.655 0.005 0 0 0 2.42724
0.66 0.005 0 0 0 2.34811
0.665 0.005 0 0 0 2.26905
0.67 0.005 0 0 0 2.19018
0.675 0.005 0 0 0 2.11165
0.68 0.005 0 0 0 2.03357
0.685 0.005 0 0 0 1.95608
0.69 0.005 0 0 0 1.87928
0.695 0.005 0 0 0 1.8033
0.7 0.005 0 0 0 1.72823
0.705 0.005 0 0 0 1.65418
0.71 0.005 0 0 0 1.58124
0.715 0.005 0 0 0 1.50951
0.72 0.005 0 0 0 1.43907
0.725 0.005 0 0 0 1.37
0.73 0.005 0 0 0 1.30236
0.735 0.005 0 0 0 1.23623
0.74 0.005 0 0 0 1.17167
0.745 0.005 0 0 0 1.10873
0.75 0.005 0 0 0 1.04746
0.755 0.005 0 0 0 0.987892
0.76 0.005 0 0 0 0.930075
0.765 0.005 0 0 0 0.874034
0.77 0.005 0 0 0 0.819796
0.775 0.005 0 0 0 0.767381
0.78 0.005 0 0 0 0.716803
0.785 0.005 0 0 0 0.668072
0.79 0.005 0 0 0 0.621194
0.795 0.005 0 0 0 0.57617
0.8 0.005 0 0 0 0.532996
0.805 0.005 0 0 0 0.491666
0.81 0.005 0 0 0 0.452168
0.815 0.005 0 0 0 0.414488
0.82 0.005 0 0 0 0.378609
0.825 0.005 0 0 0 0.34451
0.83 0.005 0 0 0 0.312168
0.835 0.005 0 0 0 0.281559
0.84 0.005 0 0 0 0.252654
0.845 0.005 0 0 0 0.225425
0.85 0.005 0 0 0 0.199839
0.855 0.005 0 0 0 0.175866
0.86 0.005 0 0 0 0.15347
0.865 0.005 0 0 0 0.132618
0.87 0.005 0 0 0 0.113273
0.875 0.005 0 0 0 0.0954
0.88 0.005 0 0 0 0.0789619
0.885 0.005 0 0 0 0.0639217
0.89 0.005 0 0 0 0.0502422
0.895 0.005 0 0 0 0.0378857
0.9 0.005 0 0 0 0.0268148
0.905 0.005 0 0 0 0.0169917
0.91 0.005 0 0 0 0.00837874
0.915 0.005 0 0 0 0.000937715
0.92 0.005 0 0 0 -0.0053698
0.925 0.005 0 0 0 -0.0105829
0.93 0.005 0 0 0 -0.0147419
0.935 0.005 0 0 0 -0.0178885
0.94 0.005 0 0 0 -0.0200667
0.945 0.005 0 0 0 -0.0213241
0.95 0.005 0 0 0 -0.0217129
0.955 0.005 0 0 0 -0.0212919
0.96 0.005 0 0 0 -0.0201294
0.965 0.005 0 0 0 -0.0183065
0.97 0.005 0 0 0 -0.0159226
0.975 0.005 0 0 0 -0.0131025
0.98 0.005 0 0 0 -0.010007
0.985 0.005 0 0 0 -0.00684705
0.99 0.005 0 0 0 -0.00390195
0.995 0.005 0 0 0 -0.00153266
1 0.005 0 0 0 -0.000152297
0 0.01 0 0 -0.000152297 0
0.005 0.01 0 0 0 -326.273
0.01 0.01 -0.180004 0.07754 -0.000921584 -44.4359
0.015 0.01 -0.18469 -0.0351128 -0.0007754 9.49379
0.02 0.01 -0.15607 -0.0352371 -0.000570456 19.092
0.025 0.01 -0.127175 -0.0246064 -0.000423029 18.9793
0.03 0.01 -0.103834 -0.0166012 -0.000324392 16.8326
0.035 0.01 -0.0857912 -0.0115365 -0.000257017 14.5305
0.04 0.01 -0.0718243 -0.00836082 -0.000209028 12.5023
0.045 0.01 -0.0608543 -0.00629671 -0.000173409 10.7998
0.05 0.01 -0.0520937 -0.0048902 -0.00014606 9.38446
0.055 0.01 -0.0449918 -0.00388741 -0.000124507 8.20546
0.06 0.01 -0.0391626 -0.00314437 -0.000107186 7.21803
0.065 0.01 -0.0343304 -0.00257647 -9.30633e-05 6.38634
0.07 0.01 -0.0302935 -0.00213177 -8.14215e-05 5.68233
0.075 0.01 -0.0269008 -0.00177687 -7.17455e-05 5.08398
0.08 0.01 -0.0240359 -0.00148942 -6.36526e-05 4.57382
0.085 0.01 -0.0216083 -0.00125385 -5.68512e-05 4.13779
0.09 0.01 -0.0195456 -0.00105896 -5.1114e-05 3.76451
0.095 0.01 -0.0177898 -0.000896455 -4.62614e-05 3.44461
0.1 0.01 -0.0162933 -0.000760055 -4.21493e-05 3.17033
0.105 0.01 -0.0150174 -0.000644899 -3.86607e-05 2.93522
0.11 0.01 -0.0139297 -0.000547174 -3.57002e-05 2.73385
0.115 0.01 -0.0130035 -0.000463843 -3.31888e-05 2.56166
0.12 0.01 -0.0122163 -0.000392468 -3.10616e-05 2.41476
0.125 0.01 -0.0115491 -0.000331067 -2.9264e-05 2.2899
0.13 0.01 -0.0109862 -0.000278026 -2.77508e-05 2.18425
0.135 0.01 -0.010514 -0.000232015 -2.64836e-05 2.09545
0.14 0.01 -0.010121 -0.000191937 -2.54305e-05 2.02144
0.145 0.01 -0.00979763 -0.000156881 -2.45641e-05 1.96047
0.15 0.01 -0.00953549 -0.000126091 -2.38615e-05 1.91104
0.155 0.01 -0.00932749 -9.89314e-05 -2.33031e-05 1.87184
0.16 0.01 -0.00916751 -7.48727e-05 -2.28721e-05 1.84176
0.165 0.01 -0.00905031 -5.3469e-05 -2.25543e-05 1.81982
0.17 0.01 -0.00897138 -3.43448e-05 -2.23373e-05 1.80518
0.175 0.01 -0.00892679 -1.71839e-05 -2.22107e-05 1.79711
0.18 0.01 -0.00891315 -1.71893e-06 -2.21654e-05 1.79496
0.185 0.01 -0.00892751 1.22759e-05 -2.21934e-05 1.79819
0.19 0.01 -0.00896729 2.49917e-05 -2.2288e-05 1.8063
0.195 0.01 -0.00903023 3.65901e-05 -2.24433e-05 1.81885
0.2 0.01 -0.00911435 4.7208e-05 -2.26539e-05 1.83546
0.205 0.01 -0.00921788 5.69608e-05 -2.29153e-05 1.8558
0.21 0.01 -0.00933927 6.59462e-05 -2.32234e-05 1.87956
0.215 0.01 -0.00947711 7.42465e-05 -2.35747e-05 1.90646
0.22 0.01 -0.00963014 8.1931e-05 -2.39658e-05 1.93627
0.225 0.01 -0.00979723 8.90576e-05 -2.43939e-05 1.96875
0.23 0.01 -0.00997733 9.56749e-05 -2.48563e-05 2.0037
0.235 0.01 -0.0101695 0.000101823 -2.53506e-05 2.04093
0.24 0.01 -0.0103728 0.000107536 -2.58745e-05 2.08026
0.245 0.01 -0.0105865 0.00011284 -2.6426e-05 2.12153
0.25 0.01 -0.0108097 0.000117759 -2.70029e-05 2.16458
0.255 0.01 -0.0110417 0.000122309 -2.76035e-05 2.20926
0.26 0.01 -0.0112818 0.000126505 -2.8226e-05 2.25543
0.265 0.01 -0.0115293 0.000130358 -2.88686e-05 2.30295
0.27 0.01 -0.0117835 0.000133876 -2.95296e-05 2.35169
0.275 0.01 -0.0120437 0.000137065 -3.02074e-05 2.40151
0.28 0.01 -0.0123094 0.000139929 -3.09003e-05 2.45229
0.285 0.01 -0.0125799 0.000142471 -3.16067e-05 2.50389
0.29 0.01 -0.0128545 0.000144692 -3.2325e-05 2.5562
0.295 0.01 -0.0131326 0.000146591 -3.30537e-05 2.60909
0.3 0.01 -0.0134136 0.000148169 -3.3791e-05 2.66244
0.305 0.01 -0.0136968 0.000149424 -3.45354e-05 2.71612
0.31 0.01 -0.0139817 0.000150354 -3.52853e-05 2.77
0.315 0.01 -0.0142675 0.000150957 -3.60391e-05 2.82397
0.32 0.01 -0.0145537 0.000151231 -3.6795e-05 2.8779
0.325 0.01 -0.0148396 0.000151174 -3.75515e-05 2.93167
0.33 0.01 -0.0151245 0.000150783 -3.83068e-05 2.98515
0.335 0.01 -0.0154079 0.000150056 -3.90594e-05 3.03823
0.34 0.01 -0.015689 0.000148993 -3.98075e-05 3.09077
0.345 0.01 -0.0159673 0.00014759 -4.05495e-05 3.14266
0.35 0.01 -0.0162421 0.000145849 -4.12836e-05 3.19377
0.355 0.01 -0.0165127 0.000143767 -4.20082e-05 3.24399
0.36 0.01 -0.0167785 0.000141347 -4.27215e-05 3.29319
0.365 0.01 -0.0170389 0.000138588 -4.34218e-05 3.34125
0.37 0.01 -0.0172933 0.000135493 -4.41075e-05 3.38806
0.375 0.01 -0.0175409 0.000132064 -4.4777e-05 3.43349
0.38 0.01 -0.0177812 0.000128304 -4.54284e-05 3.47745
0.385 0.01 -0.0180137 0.000124217 -4.60602e-05 3.5198
0.39 0.01 -0.0182376 0.000119809 -4.66708e-05 3.56045
0.395 0.01 -0.0184524 0.000115085 -4.72586e-05 3.59929
0.4 0.01 -0.0186575 0.000110052 -4.78219e-05 3.63622
0.405 0.01 -0.0188524 0.000104719 -4.83594e-05 3.67112
0.41 0.01 -0.0190365 9.90927e-05 -4.88694e-05 3.70392
0.415 0.01 -0.0192094 9.3184e-05 -4.93506e-05 3.7345
0.42 0.01 -0.0193704 8.70033e-05 -4.98015e-05 3.7628
0.425 0.01 -0.0195192 8.05619e-05 -5.02209e-05 3.78872
0.43 0.01 -0.0196553 7.38725e-05 -5.06075e-05 3.81218
0.435 0.01 -0.0197783 6.69483e-05 -5.096e-05 3.83311
0.44 0.01 -0.0198876 5.98034e-05 -5.12773e-05 3.85144
0.445 0.01 -0.0199831 5.2453e-05 -5.15584e-05 3.8671
0.45 0.01 -0.0200643 4.4913e-05 -5.18022e-05 3.88005
0.455 0.01 -0.020131 3.71998e-05 -5.20079e-05 3.89022
0.46 0.01 -0.0201828 2.9331e-05 -5.21746e-05 3.89758
0.465 0.01 -0.0202195 2.13245e-05 -5.23016e-05 3.90208
0.47 0.01 -0.0202409 1.31989e-05 -5.23882e-05 3.9037
0.475 0.01 -0.0202469 4.97354e-06 -5.2434e-05 3.90239
0.48 0.01 -0.0202372 -3.33191e-06 -5.24384e-05 3.89816
0.485 0.01 -0.0202118 -1.16973e-05 -5.24011e-05 3.89097
0.49 0.01 -0.0201706 -2.0102e-05 -5.23218e-05 3.88084
0.495 0.01 -0.0201137 -2.85254e-05 -5.22005e-05 3.86775
0.5 0.01 -0.0200409 -3.69462e-05 -5.2037e-05 3.85173
0.505 0.01 -0.0199524 -4.53433e-05 -5.18315e-05 3.83277
0.51 0.01 -0.0198482 -5.36956e-05 -5.1584e-05 3.81091
0.515 0.01 -0.0197285 -6.19816e-05 -5.1295e-05 3.78618
0.52 0.01 -0.0195935 -7.01804e-05 -5.09647e-05 3.75861
0.525 0.01 -0.0194433 -7.82709e-05 -5.05936e-05 3.72824
0.53 0.01 -0.0192782 -8.62326e-05 -5.01824e-05 3.69513
0.535 0.01 -0.0190985 -9.40451e-05 -4.97317e-05 3.65933
0.54 0.01 -0.0189045 -0.000101688 -4.92424e-05 3.6209
0.545 0.01 -0.0186965 -0.000109144 -4.87153e-05 3.57991
0.55 0.01 -0.0184749 -0.000116392 -4.81514e-05 3.53644
0.555 0.01 -0.0182402 -0.000123415 -4.75518e-05 3.49057
0.56 0.01 -0.0179928 -0.000130195 -4.69177e-05 3.44237
0.565 0.01 -0.0177331 -0.000136717 -4.62503e-05 3.39195
0.57 0.01 -0.0174617 -0.000142965 -4.5551e-05 3.33939
0.575 0.01 -0.0171791 -0.000148924 -4.48211e-05 3.28481
0.58 0.01 -0.0168859 -0.000154582 -4.40622e-05 3.22829
0.585 0.01 -0.0165826 -0.000159925 -4.32757e-05 3.16995
0.59 0.01 -0.0162698 -0.000164942 -4.24634e-05 3.10991
0.595 0.01 -0.0159482 -0.000169624 -4.16267e-05 3.04827
0.6 0.01 -0.0156184 -0.000173962 -4.07675e-05 2.98515
0.605 0.01 -0.0152811 -0.000177948 -3.98875e-05 2.92067
0.61 0.01 -0.0149368 -0.000181577 -3.89885e-05 2.85496
0.615 0.01 -0.0145863 -0.000184843 -3.80721e-05 2.78813
0.62 0.01 -0.0142302 -0.000187743 -3.71404e-05 2.7203
0.625 0.01 -0.0138692 -0.000190274 -3.61951e-05 2.65162
0.63 0.01 -0.013504 -0.000192437 -3.5238e-05 2.58219
0.635 0.01 -0.0131353 -0.000194231 -3.42711e-05 2.51214
0.64 0.01 -0.0127638 -0.000195659 -3.32961e-05 2.44159
0.645 0.01 -0.0123901 -0.000196723 -3.23148e-05 2.37068
0.65 0.01 -0.0120148 -0.000197427 -3.13292e-05 2.29951
0.655 0.01 -0.0116388 -0.000197778 -3.03409e-05 2.22821
0.66 0.01 -0.0112625 -0.000197781 -2.93517e-05 2.1569
0.665 0.01 -0.0108866 -0.000197444 -2.83634e-05 2.08569
0.67 0.01 -0.0105118 -0.000196776 -2.73775e-05 2.01469
0.675 0.01 -0.0101386 -0.000195788 -2.63959e-05 1.94402
0.68 0.01 -0.00976766 -0.000194488 -2.54199e-05 1.87377
0.685 0.01 -0.00939949 -0.000192889 -2.44512e-05 1.80405
0.69 0.01 -0.00903464 -0.000191003 -2.34913e-05 1.73497
0.695 0.01 -0.00867363 -0.000188843 -2.25414e-05 1.66661
0.7 0.01 -0.00831696 -0.000186422 -2.1603e-05 1.59906
0.705 0.01 -0.00796508 -0.000183753 -2.06774e-05 1.53241
0.71 0.01 -0.00761845 -0.000180852 -1.97657e-05 1.46673
0.715 0.01 -0.00727749 -0.000177733 -1.88691e-05 1.40212
0.72 0.01 -0.00694257 -0.000174411 -1.79885e-05 1.33863
0.725 0.01 -0.00661407 -0.000170901 -1.71251e-05 1.27634
0.73 0.01 -0.00629231 -0.000167218 -1.62797e-05 1.21531
0.735 0.01 -0.00597761 -0.000163377 -1.54531e-05 1.15559
0.74 0.01 -0.00567024 -0.000159394 -1.4646e-05 1.09723
0.745 0.01 -0.00537046 -0.000155283 -1.38592e-05 1.04028
0.75 0.01 -0.00507849 -0.000151059 -1.30933e-05 0.984791
0.755 0.01 -0.00479453 -0.000146738 -1.23487e-05 0.930791
0.76 0.01 -0.00451876 -0.000142332 -1.1626e-05 0.878313
0.765 0.01 -0.00425131 -0.000137857 -1.09255e-05 0.827388
0.77 0.01 -0.00399231 -0.000133324 -1.02475e-05 0.778037
0.775 0.01 -0.00374186 -0.000128749 -9.59232e-06 0.73028
0.78 0.01 -0.00350003 -0.000124142 -8.96009e-06 0.684131
0.785 0.01 -0.00326687 -0.000119516 -8.35095e-06 0.639601
0.79 0.01 -0.00304242 -0.000114882 -7.76497e-06 0.596698
0.795 0.01 -0.00282667 -0.000110251 -7.20216e-06 0.555423
0.8 0.01 -0.00261963 -0.000105634 -6.66248e-06 0.515777
0.805 0.01 -0.00242126 -0.000101039 -6.14585e-06 0.477755
0.81 0.01 -0.00223152 -9.64747e-05 -5.65211e-06 0.441351
0.815 0.01 -0.00205035 -9.19507e-05 -5.18111e-06 0.406554
0.82 0.01 -0.00187768 -8.74738e-05 -4.73262e-06 0.373353
0.825 0.01 -0.0017134 -8.30511e-05 -4.30638e-06 0.341731
0.83 0.01 -0.00155743 -7.86888e-05 -3.9021e-06 0.311671
0.835 0.01 -0.00140965 -7.43926e-05 -3.51948e-06 0.283153
0.84 0.01 -0.00126993 -7.01675e-05 -3.15817e-06 0.256157
0.845 0.01 -0.00113815 -6.6018e-05 -2.8178e-06 0.230657
0.85 0.01 -0.00101416 -6.19479e-05 -2.49798e-06 0.20663
0.855 0.01 -0.00089781 -5.79605e-05 -2.19831e-06 0.184048
0.86 0.01 -0.000788957 -5.40586e-05 -1.91836e-06 0.162885
0.865 0.01 -0.000687437 -5.02446e-05 -1.6577e-06 0.143112
0.87 0.01 -0.000593087 -4.65202e-05 -1.41589e-06 0.124699
0.875 0.01 -0.000505742 -4.28869e-05 -1.19248e-06 0.107615
0.88 0.01 -0.000425231 -3.93458e-05 -9.87004e-07 0.0918306
0.885 0.01 -0.000351383 -3.58977e-05 -7.99001e-07 0.0773128
0.89 0.01 -0.000284023 -3.2543e-05 -6.28006e-07 0.0640298
0.895 0.01 -0.000222977 -2.92821e-05 -4.73551e-07 0.051949
0.9 0.01 -0.000168068 -2.61154e-05 -3.35164e-07 0.0410373
0.905 0.01 -0.000119117 -2.3043e-05 -2.12377e-07 0.031261
0.91 0.01 -7.59441e-05 -2.00655e-05 -1.04715e-07 0.0225859
0.915 0.01 -3.83678e-05 -1.71837e-05 -1.17029e-08 0.0149771
0.92 0.01 -6.20225e-06 -1.4399e-05 6.71401e-08 0.0083988
0.925 0.01 2.07426e-05 -1.17134e-05 1.32303e-07 0.00281384
0.93 0.01 4.26633e-05 -9.13024e-06 1.84289e-07 -0.00181645
0.935 0.01 5.97656e-05 -6.65446e-06 2.2362e-07 -0.00553296
0.94 0.01 7.2268e-05 -4.29315e-06 2.50846e-07 -0.00837946
0.945 0.01 8.04063e-05 -2.05645e-06 2.66562e-07 -0.0104036
0.95 0.01 8.44407e-05 4.13689e-08 2.71421e-07 -0.0116581
0.955 0.01 8.46637e-05 1.98034e-06 2.66157e-07 -0.0122024
0.96 0.01 8.14114e-05 3.73258e-06 2.51624e-07 -0.0121047
0.965 0.01 7.50795e-05 5.25916e-06 2.28837e-07 -0.0114446
0.97 0.01 6.61425e-05 6.50552e-06 1.99037e-07 -0.0103162
0.975 0.01 5.51806e-05 7.39492e-06 1.63784e-07 -0.00883195
0.98 0.01 4.29134e-05 7.81962e-06 1.25089e-07 -0.00712618
0.985 0.01 3.02397e-05 7.63147e-06 8.5589e-08 -0.00535631
0.99 0.01 1.82747e-05 6.64308e-06 4.87747e-08 -0.00369589
0.995 0.01 8.35367e-06 4.6871e-06 1.91581e-08 -0.00230334
1 0.01 1.91145e-06 1.91581e-06 1.90359e-09 -0.00122634
0 0.015 0 0 -0.00152916 0
0.005 0.015 0 0 0 -255.997
0.01 0.015 -0.152756 0.18469 -0.00180004 -79.3007
0.015 0.015 -0.205975 -0.0239343 -0.0018469 -16.6531
0.02 0.015 -0.204193 -0.0575154 -0.0015607 2.34846
0.025 0.015 -0.184183 -0.0522359 -0.00127175 7.99688
0.03 0.015 -0.160851 -0.0413838 -0.00103834 9.34432
0.035 0.015 -0.139178 -0.0320095 -0.000857912 9.22999
0.04 0.015 -0.120416 -0.0249369 -0.000718242 8.62782
0.045 0.015 -0.104552 -0.0197305 -0.000608543 7.89383
0.05 0.015 -0.0912207 -0.0158625 -0.000520937 7.16161
0.055 0.015 -0.0800092 -0.0129311 -0.000449918 6.4799
0.06 0.015 -0.0705503 -0.0106614 -0.000391625 5.86384
0.065 0.015 -0.0625403 -0.00886899 -0.000343304 5.31506
0.07 0.015 -0.0557335 -0.00742959 -0.000302935 4.82992
0.075 0.015 -0.0499317 -0.00625757 -0.000269007 4.40294
0.08 0.015 -0.0449746 -0.00529242 -0.000240359 4.02821
0.085 0.015 -0.0407313 -0.00449026 -0.000216082 3.70004
0.09 0.015 -0.0370944 -0.00381847 -0.000195456 3.41317
0.095 0.015 -0.0339748 -0.00325223 -0.000177897 3.16284
0.1 0.015 -0.0312983 -0.0027723 -0.000162933 2.94484
0.105 0.015 -0.0290028 -0.00236354 -0.000150174 2.7554
0.11 0.015 -0.027036 -0.00201384 -0.000139297 2.59123
0.115 0.015 -0.0253537 -0.00171343 -0.000130035 2.44942
0.12 0.015 -0.0239184 -0.00145434 -0.000122162 2.32739
0.125 0.015 -0.0226984 -0.00123003 -0.000115491 2.22293
0.13 0.015 -0.0216665 -0.00103512 -0.000109861 2.13405
0.135 0.015 -0.0207993 -0.000865107 -0.000105139 2.05903
0.14 0.015 -0.0200772 -0.000716268 -0.00010121 1.99637
0.145 0.015 -0.0194829 -0.000585474 -9.79759e-05 1.94473
0.15 0.015 -0.0190018 -0.000470101 -9.53545e-05 1.90296
0.155 0.015 -0.0186213 -0.00036794 -9.32744e-05 1.87002
0.16 0.015 -0.0183303 -0.000277127 -9.16747e-05 1.84504
0.165 0.015 -0.0181194 -0.000196086 -9.05027e-05 1.82721
0.17 0.015 -0.0179804 -0.000123485 -8.97134e-05 1.81583
0.175 0.015 -0.0179062 -5.81898e-05 -8.92675e-05 1.81031
0.18 0.015 -0.0178903 7.58533e-07 -8.91312e-05 1.81008
0.185 0.015 -0.0179275 5.41765e-05 -8.92748e-05 1.81468
0.19 0.015 -0.0180129 0.000102758 -8.96726e-05 1.82367
0.195 0.015 -0.0181422 0.000147091 -9.03021e-05 1.83666
0.2 0.015 -0.0183117 0.000187678 -9.11432e-05 1.85332
0.205 0.015 -0.0185181 0.000224943 -9.21786e-05 1.87334
0.21 0.015 -0.0187584 0.000259247 -9.33925e-05 1.89643
0.215 0.015 -0.0190299 0.000290894 -9.47709e-05 1.92235
0.22 0.015 -0.0193302 0.000320143 -9.63012e-05 1.95086
0.225 0.015 -0.019657 0.000347209 -9.79721e-05 1.98175
0.23 0.015 -0.0200083 0.000372275 -9.97732e-05 2.01482
0.235 0.015 -0.0203824 0.000395494 -0.000101695 2.04989
0.24 0.015 -0.0207773 0.00041699 -0.000103728 2.0868
0.245 0.015 -0.0211916 0.00043687 -0.000105865 2.12537
0.25 0.015 -0.0216236 0.000455216 -0.000108097 2.16545
0.255 0.015 -0.0220718 0.0004721 -0.000110417 2.20691
0.26 0.015 -0.0225349 0.000487576 -0.000112818 2.24959
0.265 0.015 -0.0230115 0.000501688 -0.000115293 2.29336
0.27 0.015 -0.0235002 0.000514469 -0.000117835 2.3381
0.275 0.015 -0.0239997 0.000525945 -0.000120437 2.38366
0.28 0.015 -0.0245089 0.000536135 -0.000123094 2.42993
0.285 0.015 -0.0250263 0.000545049 -0.000125799 2.47679
0.29 0.015 -0.0255507 0.000552697 -0.000128545 2.5241
0.295 0.015 -0.026081 0.000559081 -0.000131326 2.57176
0.3 0.015 -0.0266159 0.000564204 -0.000134136 2.61963
0.305 0.015 -0.027154 0.000568062 -0.000136968 2.66761
0.31 0.015 -0.0276943 0.000570654 -0.000139817 2.71558
0.315 0.015 -0.0282355 0.000571976 -0.000142675 2.76341
0.32 0.015 -0.0287763 0.000572022 -0.000145537 2.811
0.325 0.015 -0.0293155 0.000570789 -0.000148396 2.85824
0.33 0.015 -0.0298519 0.000568272 -0.000151246 2.905
0.335 0.015 -0.0303842 0.000564469 -0.000154079 2.95118
0.34 0.015 -0.0309112 0.000559378 -0.000156891 2.99666
0.345 0.015 -0.0314317 0.000552998 -0.000159674 3.04134
0.35 0.015 -0.0319445 0.000545331 -0.000162422 3.0851
0.355 0.015 -0.0324484 0.00053638 -0.000165128 3.12785
0.36 0.015 -0.0329421 0.000526151 -0.000167786 3.16947
0.365 0.015 -0.0334244 0.000514653 -0.00017039 3.20986
0.37 0.015 -0.0338942 0.000501897 -0.000172933 3.24893
0.375 0.015 -0.0343504 0.000487896 -0.00017541 3.28657
0.38 0.015 -0.0347917 0.000472668 -0.000177813 3.32269
0.385 0.015 -0.035217 0.000456233 -0.000180137 3.3572
0.39 0.015 -0.0356253 0.000438613 -0.000182377 3.39
0.395 0.015 -0.0360155 0.000419836 -0.000184525 3.42102
0.4 0.015 -0.0363865 0.00039993 -0.000186576 3.45016
0.405 0.015 -0.0367373 0.00037893 -0.000188525 3.47735
0.41 0.015 -0.037067 0.000356871 -0.000190366 3.50251
0.415 0.015 -0.0373747 0.000333794 -0.000192095 3.52558
0.42 0.015 -0.0376593 0.00030974 -0.000193706 3.54648
0.425 0.015 -0.0379202 0.000284758 -0.000195194 3.56515
0.43 0.015 -0.0381565 0.000258895 -0.000196554 3.58155
0.435 0.015 -0.0383674 0.000232205 -0.000197784 3.5956
0.44 0.015 -0.0385523 0.000204742 -0.000198878 3.60727
0.445 0.015 -0.0387105 0.000176566 -0.000199833 3.61651
0.45 0.015 -0.0388414 0.000147737 -0.000200645 3.62329
0.455 0.015 -0.0389446 0.000118319 -0.000201311 3.62757
0.46 0.015 -0.0390195 8.83773e-05 -0.00020183 3.62933
0.465 0.015 -0.0390658 5.79809e-05 -0.000202197 3.62855
0.47 0.015 -0.0390831 2.71996e-05 -0.000202411 3.62521
0.475 0.015 -0.0390712 -3.8946e-06 -0.00020247 3.6193
0.48 0.015 -0.0390299 -3.52283e-05 -0.000202374 3.61082
0.485 0.015 -0.038959 -6.67268e-05 -0.00020212 3.59977
0.49 0.015 -0.0388585 -9.83142e-05 -0.000201708 3.58616
0.495 0.015 -0.0387284 -0.000129914 -0.000201138 3.56999
0.5 0.015 -0.0385688 -0.000161449 -0.000200411 3.5513
0.505 0.015 -0.0383798 -0.000192841 -0.000199525 3.5301
0.51 0.015 -0.0381616 -0.000224014 -0.000198484 3.50643
0.515 0.015 -0.0379146 -0.00025489 -0.000197287 3.48031
0.52 0.015 -0.0376391 -0.000285394 -0.000195937 3.4518
0.525 0.015 -0.0373356 -0.000315449 -0.000194435 3.42093
0.53 0.015 -0.0370044 -0.000344982 -0.000192784 3.38775
0.535 0.015 -0.0366462 -0.000373919 -0.000190987 3.35233
0.54 0.015 -0.0362617 -0.00040219 -0.000189046 3.31472
0.545 0.015 -0.0358514 -0.000429726 -0.000186967 3.27499
0.55 0.015 -0.0354162 -0.000456461 -0.000184751 3.23321
0.555 0.015 -0.0349568 -0.000482331 -0.000182404 3.18945
0.56 0.015 -0.0344741 -0.000507274 -0.000179929 3.14379
0.565 0.015 -0.033969 -0.000531235 -0.000177333 3.0963
0.57 0.015 -0.0334425 -0.000554157 -0.000174619 3.04708
0.575 0.015 -0.0328956 -0.000575991 -0.000171793 2.99621
0.58 0.015 -0.0323293 -0.00059669 -0.00016886 2.94379
0.585 0.015 -0.0317446 -0.000616211 -0.000165828 2.88989
0.59 0.015 -0.0311428 -0.000634516 -0.0001627 2.83463
0.595 0.015 -0.030525 -0.00065157 -0.000159484 2.77809
0.6 0.015 -0.0298923 -0.000667343 -0.000156186 2.72038
0.605 0.015 -0.0292459 -0.000681811 -0.000152812 2.6616
0.61 0.015 -0.0285871 -0.000694953 -0.000149369 2.60184
0.615 0.015 -0.0279171 -0.000706753 -0.000145864 2.54121
0.62 0.015 -0.0272371 -0.000717199 -0.000142303 2.47982
0.625 0.015 -0.0265484 -0.000726287 -0.000138693 2.41776
0.63 0.015 -0.0258522 -0.000734013 -0.000135042 2.35514
0.635 0.015 -0.0251498 -0.000740381 -0.000131355 2.29206
0.64 0.015 -0.0244424 -0.000745399 -0.000127639 2.22862
0.645 0.015 -0.0237313 -0.000749078 -0.000123902 2.16493
0.65 0.015 -0.0230177 -0.000751434 -0.00012015 2.10107
0.655 0.015 -0.0223028 -0.00075249 -0.000116389 2.03716
0.66 0.015 -0.0215877 -0.000752268 -0.000112626 1.97329
0.665 0.015 -0.0208737 -0.000750797 -0.000108867 1.90954
0.67 0.015 -0.0201618 -0.00074811 -0.000105119 1.84602
0.675 0.015 -0.0194531 -0.000744242 -0.000101387 1.78281
0.68 0.015 -0.0187488 -0.000739231 -9.76776e-05 1.72
0.685 0.015 -0.0180498 -0.00073312 -9.39958e-05 1.65768
0.69 0.015 -0.0173572 -0.000725952 -9.03473e-05 1.59591
0.695 0.015 -0.0166718 -0.000717774 -8.67372e-05 1.53479
0.7 0.015 -0.0159947 -0.000708634 -8.31704e-05 1.47438
0.705 0.015 -0.0153265 -0.000698583 -7.96516e-05 1.41476
0.71 0.015 -0.0146683 -0.000687673 -7.61853e-05 1.35599
0.715 0.015 -0.0140206 -0.000675957 -7.27755e-05 1.29814
0.72 0.015 -0.0133843 -0.00066349 -6.94263e-05 1.24126
0.725 0.015 -0.0127601 -0.000650325 -6.61413e-05 1.18542
0.73 0.015 -0.0121484 -0.000636518 -6.29236e-05 1.13066
0.735 0.015 -0.01155 -0.000622125 -5.97766e-05 1.07703
0.74 0.015 -0.0109652 -0.000607199 -5.67029e-05 1.02458
0.745 0.015 -0.0103947 -0.000591797 -5.3705e-05 0.973341
0.75 0.015 -0.00983881 -0.000575971 -5.07853e-05 0.923359
0.755 0.015 -0.00929788 -0.000559775 -4.79457e-05 0.874663
0.76 0.015 -0.00877227 -0.000543261 -4.51879e-05 0.827281
0.765 0.015 -0.00826224 -0.00052648 -4.25134e-05 0.781239
0.77 0.015 -0.00776803 -0.00050948 -3.99234e-05 0.736558
0.775 0.015 -0.00728983 -0.000492309 -3.74188e-05 0.693255
0.78 0.015 -0.00682779 -0.000475013 -3.50005e-05 0.651347
0.785 0.015 -0.006382 -0.000457635 -3.26689e-05 0.610843
0.79 0.015 -0.00595254 -0.000440219 -3.04243e-05 0.571751
0.795 0.015 -0.00553943 -0.000422802 -2.82669e-05 0.534077
0.8 0.015 -0.00514267 -0.000405423 -2.61964e-05 0.497822
0.805 0.015 -0.00476221 -0.000388117 -2.42127e-05 0.462986
0.81 0.015 -0.00439799 -0.000370918 -2.23153e-05 0.429565
0.815 0.015 -0.00404989 -0.000353855 -2.05036e-05 0.397553
0.82 0.015 -0.00371779 -0.000336957 -1.87768e-05 0.366941
0.825 0.015 -0.00340153 -0.00032025 -1.71341e-05 0.337719