Title=" Lid Driven Flow"
VARIABLES="X","Y","U","V","psi","xi"
ZONE T= "BOX", I= 201, J=201, F=POINT
0 0 0 0 0.00260933 0
0.005 0 0 0 0 0
0.01 0 0 0 0 0
0.015 0 0 0 0 161.891
0.02 0 0 0 0 176.124
0.025 0 0 0 0 155.608
0.03 0 0 0 0 133.222
0.035 0 0 0 0 115.708
0.04 0 0 0 0 102.858
0.045 0 0 0 0 93.3289
0.05 0 0 0 0 86.0085
0.055 0 0 0 0 80.1641
0.06 0 0 0 0 75.337
0.065 0 0 0 0 71.2385
0.07 0 0 0 0 67.6812
0.075 0 0 0 0 64.5386
0.08 0 0 0 0 61.723
0.085 0 0 0 0 59.171
0.09 0 0 0 0 56.8361
0.095 0 0 0 0 54.6836
0.1 0 0 0 0 52.6866
0.105 0 0 0 0 50.8245
0.11 0 0 0 0 49.0807
0.115 0 0 0 0 47.4421
0.12 0 0 0 0 45.8979
0.125 0 0 0 0 44.4392
0.13 0 0 0 0 43.0585
0.135 0 0 0 0 41.7493
0.14 0 0 0 0 40.5062
0.145 0 0 0 0 39.3242
0.15 0 0 0 0 38.199
0.155 0 0 0 0 37.1267
0.16 0 0 0 0 36.1039
0.165 0 0 0 0 35.1273
0.17 0 0 0 0 34.1939
0.175 0 0 0 0 33.301
0.18 0 0 0 0 32.446
0.185 0 0 0 0 31.6266
0.19 0 0 0 0 30.8404
0.195 0 0 0 0 30.0854
0.2 0 0 0 0 29.3596
0.205 0 0 0 0 28.661
0.21 0 0 0 0 27.988
0.215 0 0 0 0 27.3387
0.22 0 0 0 0 26.7117
0.225 0 0 0 0 26.1055
0.23 0 0 0 0 25.5185
0.235 0 0 0 0 24.9496
0.24 0 0 0 0 24.3973
0.245 0 0 0 0 23.8605
0.25 0 0 0 0 23.3381
0.255 0 0 0 0 22.829
0.26 0 0 0 0 22.3322
0.265 0 0 0 0 21.8467
0.27 0 0 0 0 21.3718
0.275 0 0 0 0 20.9065
0.28 0 0 0 0 20.4501
0.285 0 0 0 0 20.0019
0.29 0 0 0 0 19.5612
0.295 0 0 0 0 19.1274
0.3 0 0 0 0 18.6999
0.305 0 0 0 0 18.2782
0.31 0 0 0 0 17.8618
0.315 0 0 0 0 17.4503
0.32 0 0 0 0 17.0434
0.325 0 0 0 0 16.6405
0.33 0 0 0 0 16.2414
0.335 0 0 0 0 15.8459
0.34 0 0 0 0 15.4537
0.345 0 0 0 0 15.0646
0.35 0 0 0 0 14.6783
0.355 0 0 0 0 14.2948
0.36 0 0 0 0 13.914
0.365 0 0 0 0 13.5358
0.37 0 0 0 0 13.16
0.375 0 0 0 0 12.7868
0.38 0 0 0 0 12.416
0.385 0 0 0 0 12.0477
0.39 0 0 0 0 11.682
0.395 0 0 0 0 11.319
0.4 0 0 0 0 10.9587
0.405 0 0 0 0 10.6012
0.41 0 0 0 0 10.2466
0.415 0 0 0 0 9.89521
0.42 0 0 0 0 9.54708
0.425 0 0 0 0 9.20239
0.43 0 0 0 0 8.86134
0.435 0 0 0 0 8.52413
0.44 0 0 0 0 8.19096
0.445 0 0 0 0 7.86205
0.45 0 0 0 0 7.53761
0.455 0 0 0 0 7.21787
0.46 0 0 0 0 6.90305
0.465 0 0 0 0 6.59337
0.47 0 0 0 0 6.28906
0.475 0 0 0 0 5.99034
0.48 0 0 0 0 5.69741
0.485 0 0 0 0 5.4105
0.49 0 0 0 0 5.12978
0.495 0 0 0 0 4.85546
0.5 0 0 0 0 4.58772
0.505 0 0 0 0 4.32671
0.51 0 0 0 0 4.0726
0.515 0 0 0 0 3.82552
0.52 0 0 0 0 3.5856
0.525 0 0 0 0 3.35293
0.53 0 0 0 0 3.12762
0.535 0 0 0 0 2.90973
0.54 0 0 0 0 2.69932
0.545 0 0 0 0 2.49642
0.55 0 0 0 0 2.30105
0.555 0 0 0 0 2.11322
0.56 0 0 0 0 1.93291
0.565 0 0 0 0 1.76008
0.57 0 0 0 0 1.59468
0.575 0 0 0 0 1.43663
0.58 0 0 0 0 1.28586
0.585 0 0 0 0 1.14227
0.59 0 0 0 0 1.00574
0.595 0 0 0 0 0.876147
0.6 0 0 0 0 0.753346
0.605 0 0 0 0 0.637187
0.61 0 0 0 0 0.527511
0.615 0 0 0 0 0.424146
0.62 0 0 0 0 0.326914
0.625 0 0 0 0 0.23563
0.63 0 0 0 0 0.150101
0.635 0 0 0 0 0.0701331
0.64 0 0 0 0 -0.00447513
0.645 0 0 0 0 -0.073926
0.65 0 0 0 0 -0.138424
0.655 0 0 0 0 -0.198176
0.66 0 0 0 0 -0.253387
0.665 0 0 0 0 -0.304264
0.67 0 0 0 0 -0.351013
0.675 0 0 0 0 -0.393837
0.68 0 0 0 0 -0.432938
0.685 0 0 0 0 -0.468518
0.69 0 0 0 0 -0.500773
0.695 0 0 0 0 -0.5299
0.7 0 0 0 0 -0.556089
0.705 0 0 0 0 -0.579529
0.71 0 0 0 0 -0.600404
0.715 0 0 0 0 -0.618893
0.72 0 0 0 0 -0.635171
0.725 0 0 0 0 -0.649406
0.73 0 0 0 0 -0.661761
0.735 0 0 0 0 -0.672391
0.74 0 0 0 0 -0.681441
0.745 0 0 0 0 -0.689051
0.75 0 0 0 0 -0.695348
0.755 0 0 0 0 -0.700449
0.76 0 0 0 0 -0.704462
0.765 0 0 0 0 -0.707479
0.77 0 0 0 0 -0.709581
0.775 0 0 0 0 -0.710837
0.78 0 0 0 0 -0.711302
0.785 0 0 0 0 -0.711015
0.79 0 0 0 0 -0.710004
0.795 0 0 0 0 -0.708284
0.8 0 0 0 0 -0.705854
0.805 0 0 0 0 -0.702704
0.81 0 0 0 0 -0.698812
0.815 0 0 0 0 -0.694145
0.82 0 0 0 0 -0.688663
0.825 0 0 0 0 -0.682315
0.83 0 0 0 0 -0.675049
0.835 0 0 0 0 -0.666805
0.84 0 0 0 0 -0.657523
0.845 0 0 0 0 -0.647142
0.85 0 0 0 0 -0.635603
0.855 0 0 0 0 -0.62285
0.86 0 0 0 0 -0.608832
0.865 0 0 0 0 -0.593508
0.87 0 0 0 0 -0.576845
0.875 0 0 0 0 -0.558821
0.88 0 0 0 0 -0.539429
0.885 0 0 0 0 -0.518675
0.89 0 0 0 0 -0.496584
0.895 0 0 0 0 -0.473198
0.9 0 0 0 0 -0.448577
0.905 0 0 0 0 -0.422803
0.91 0 0 0 0 -0.395981
0.915 0 0 0 0 -0.368237
0.92 0 0 0 0 -0.339719
0.925 0 0 0 0 -0.310602
0.93 0 0 0 0 -0.281083
0.935 0 0 0 0 -0.251385
0.94 0 0 0 0 -0.221756
0.945 0 0 0 0 -0.19247
0.95 0 0 0 0 -0.163826
0.955 0 0 0 0 -0.136151
0.96 0 0 0 0 -0.109798
0.965 0 0 0 0 -0.0851482
0.97 0 0 0 0 -0.0626086
0.975 0 0 0 0 -0.0426121
0.98 0 0 0 0 -0.0256102
0.985 0 0 0 0 -0.0120576
0.99 0 0 0 0 -0.00237462
0.995 0 0 0 0 0.00314183
1 0 0 0 0 0.00452549
0 0.005 0 0 0 0
0.005 0.005 0 0 0 0
0.01 0.005 0 0 0 73.7276
0.015 0.005 0 0 0 62.0519
0.02 0.005 0 0 0 45.6822
0.025 0.005 0 0 0 33.9026
0.03 0.005 0 0 0 26.0076
0.035 0.005 0 0 0 20.5958
0.04 0.005 0 0 0 16.7218
0.045 0.005 0 0 0 13.8298
0.05 0.005 0 0 0 11.5965
0.055 0.005 0 0 0 9.82745
0.06 0.005 0 0 0 8.39996
0.065 0.005 0 0 0 7.23274
0.07 0.005 0 0 0 6.26923
0.075 0.005 0 0 0 5.46846
0.08 0.005 0 0 0 4.79968
0.085 0.005 0 0 0 4.23923
0.09 0.005 0 0 0 3.76845
0.095 0.005 0 0 0 3.37244
0.1 0.005 0 0 0 3.03913
0.105 0.005 0 0 0 2.75865
0.11 0.005 0 0 0 2.52285
0.115 0.005 0 0 0 2.325
0.12 0.005 0 0 0 2.15951
0.125 0.005 0 0 0 2.02168
0.13 0.005 0 0 0 1.90762
0.135 0.005 0 0 0 1.81403
0.14 0.005 0 0 0 1.73816
0.145 0.005 0 0 0 1.67768
0.15 0.005 0 0 0 1.63063
0.155 0.005 0 0 0 1.59536
0.16 0.005 0 0 0 1.57046
0.165 0.005 0 0 0 1.55475
0.17 0.005 0 0 0 1.54723
0.175 0.005 0 0 0 1.54703
0.18 0.005 0 0 0 1.55343
0.185 0.005 0 0 0 1.56581
0.19 0.005 0 0 0 1.58364
0.195 0.005 0 0 0 1.60646
0.2 0.005 0 0 0 1.63388
0.205 0.005 0 0 0 1.66555
0.21 0.005 0 0 0 1.70118
0.215 0.005 0 0 0 1.74051
0.22 0.005 0 0 0 1.78332
0.225 0.005 0 0 0 1.82938
0.23 0.005 0 0 0 1.87852
0.235 0.005 0 0 0 1.93058
0.24 0.005 0 0 0 1.98538
0.245 0.005 0 0 0 2.0428
0.25 0.005 0 0 0 2.10269
0.255 0.005 0 0 0 2.16492
0.26 0.005 0 0 0 2.22936
0.265 0.005 0 0 0 2.2959
0.27 0.005 0 0 0 2.3644
0.275 0.005 0 0 0 2.43474
0.28 0.005 0 0 0 2.50682
0.285 0.005 0 0 0 2.58049
0.29 0.005 0 0 0 2.65564
0.295 0.005 0 0 0 2.73214
0.3 0.005 0 0 0 2.80986
0.305 0.005 0 0 0 2.88868
0.31 0.005 0 0 0 2.96845
0.315 0.005 0 0 0 3.04904
0.32 0.005 0 0 0 3.1303
0.325 0.005 0 0 0 3.2121
0.33 0.005 0 0 0 3.29429
0.335 0.005 0 0 0 3.37672
0.34 0.005 0 0 0 3.45923
0.345 0.005 0 0 0 3.54167
0.35 0.005 0 0 0 3.62387
0.355 0.005 0 0 0 3.70569
0.36 0.005 0 0 0 3.78695
0.365 0.005 0 0 0 3.86748
0.37 0.005 0 0 0 3.94713
0.375 0.005 0 0 0 4.02572
0.38 0.005 0 0 0 4.10308
0.385 0.005 0 0 0 4.17905
0.39 0.005 0 0 0 4.25345
0.395 0.005 0 0 0 4.32611
0.4 0.005 0 0 0 4.39686
0.405 0.005 0 0 0 4.46554
0.41 0.005 0 0 0 4.53198
0.415 0.005 0 0 0 4.596
0.42 0.005 0 0 0 4.65747
0.425 0.005 0 0 0 4.7162
0.43 0.005 0 0 0 4.77205
0.435 0.005 0 0 0 4.82486
0.44 0.005 0 0 0 4.87449
0.445 0.005 0 0 0 4.9208
0.45 0.005 0 0 0 4.96365
0.455 0.005 0 0 0 5.0029
0.46 0.005 0 0 0 5.03844
0.465 0.005 0 0 0 5.07015
0.47 0.005 0 0 0 5.09792
0.475 0.005 0 0 0 5.12164
0.48 0.005 0 0 0 5.14122
0.485 0.005 0 0 0 5.15658
0.49 0.005 0 0 0 5.16765
0.495 0.005 0 0 0 5.17435
0.5 0.005 0 0 0 5.17662
0.505 0.005 0 0 0 5.17443
0.51 0.005 0 0 0 5.16774
0.515 0.005 0 0 0 5.15652
0.52 0.005 0 0 0 5.14075
0.525 0.005 0 0 0 5.12044
0.53 0.005 0 0 0 5.09559
0.535 0.005 0 0 0 5.06623
0.54 0.005 0 0 0 5.03237
0.545 0.005 0 0 0 4.99407
0.55 0.005 0 0 0 4.95139
0.555 0.005 0 0 0 4.90437
0.56 0.005 0 0 0 4.85311
0.565 0.005 0 0 0 4.7977
0.57 0.005 0 0 0 4.73822
0.575 0.005 0 0 0 4.67479
0.58 0.005 0 0 0 4.60754
0.585 0.005 0 0 0 4.53659
0.59 0.005 0 0 0 4.46208
0.595 0.005 0 0 0 4.38417
0.6 0.005 0 0 0 4.30301
0.605 0.005 0 0 0 4.21877
0.61 0.005 0 0 0 4.13163
0.615 0.005 0 0 0 4.04176
0.62 0.005 0 0 0 3.94937
0.625 0.005 0 0 0 3.85464
0.63 0.005 0 0 0 3.75778
0.635 0.005 0 0 0 3.65898
0.64 0.005 0 0 0 3.55847
0.645 0.005 0 0 0 3.45645
0.65 0.005 0 0 0 3.35314
0.655 0.005 0 0 0 3.24874
0.66 0.005 0 0 0 3.14349
0.665 0.005 0 0 0 3.03759
0.67 0.005 0 0 0 2.93126
0.675 0.005 0 0 0 2.82472
0.68 0.005 0 0 0 2.71817
0.685 0.005 0 0 0 2.61183
0.69 0.005 0 0 0 2.50589
0.695 0.005 0 0 0 2.40056
0.7 0.005 0 0 0 2.29603
0.705 0.005 0 0 0 2.19249
0.71 0.005 0 0 0 2.09012
0.715 0.005 0 0 0 1.98909
0.72 0.005 0 0 0 1.88957
0.725 0.005 0 0 0 1.79172
0.73 0.005 0 0 0 1.69569
0.735 0.005 0 0 0 1.60161
0.74 0.005 0 0 0 1.50961
0.745 0.005 0 0 0 1.41983
0.75 0.005 0 0 0 1.33237
0.755 0.005 0 0 0 1.24733
0.76 0.005 0 0 0 1.1648
0.765 0.005 0 0 0 1.08486
0.77 0.005 0 0 0 1.0076
0.775 0.005 0 0 0 0.933055
0.78 0.005 0 0 0 0.861293
0.785 0.005 0 0 0 0.792351
0.79 0.005 0 0 0 0.726262
0.795 0.005 0 0 0 0.663048
0.8 0.005 0 0 0 0.602723
0.805 0.005 0 0 0 0.545292
0.81 0.005 0 0 0 0.490752
0.815 0.005 0 0 0 0.439093
0.82 0.005 0 0 0 0.390294
0.825 0.005 0 0 0 0.344332
0.83 0.005 0 0 0 0.301173
0.835 0.005 0 0 0 0.260779
0.84 0.005 0 0 0 0.223106
0.845 0.005 0 0 0 0.188104
0.85 0.005 0 0 0 0.155718
0.855 0.005 0 0 0 0.125891
0.86 0.005 0 0 0 0.0985598
0.865 0.005 0 0 0 0.0736582
0.87 0.005 0 0 0 0.0511174
0.875 0.005 0 0 0 0.030866
0.88 0.005 0 0 0 0.0128301
0.885 0.005 0 0 0 -0.00306602
0.89 0.005 0 0 0 -0.0168997
0.895 0.005 0 0 0 -0.0287499
0.9 0.005 0 0 0 -0.0386968
0.905 0.005 0 0 0 -0.0468219
0.91 0.005 0 0 0 -0.0532079
0.915 0.005 0 0 0 -0.0579391
0.92 0.005 0 0 0 -0.0611018
0.925 0.005 0 0 0 -0.0627842
0.93 0.005 0 0 0 -0.0630778
0.935 0.005 0 0 0 -0.0620783
0.94 0.005 0 0 0 -0.0598866
0.945 0.005 0 0 0 -0.056611
0.95 0.005 0 0 0 -0.0523695
0.955 0.005 0 0 0 -0.0472928
0.96 0.005 0 0 0 -0.0415288
0.965 0.005 0 0 0 -0.0352477
0.97 0.005 0 0 0 -0.0286498
0.975 0.005 0 0 0 -0.0219741
0.98 0.005 0 0 0 -0.0155109
0.985 0.005 0 0 0 -0.00961444
0.99 0.005 0 0 0 -0.00471233
0.995 0.005 0 0 0 -0.00128754
1 0.005 0 0 0 0.000242585
0 0.01 0 0 0.000242585 0
0.005 0.01 0 0 0 -326.272
0.01 0.01 -0.180025 0.0775649 -0.000921595 -44.4192
0.015 0.01 -0.184777 -0.0350567 -0.000775649 9.51181
0.02 0.01 -0.156228 -0.0351866 -0.000571027 19.104
0.025 0.01 -0.127361 -0.0245932 -0.000423783 18.9841
0.03 0.01 -0.103983 -0.0166336 -0.000325095 16.8273
0.035 0.01 -0.0858421 -0.0116073 -0.000257447 14.51
0.04 0.01 -0.0717293 -0.00845743 -0.000209022 12.461
0.045 0.01 -0.0605846 -0.00640652 -0.000172873 10.7333
0.05 0.01 -0.0516371 -0.00500298 -0.000144957 9.29041
0.055 0.01 -0.0443494 -0.00399573 -0.000122843 8.0831
0.06 0.01 -0.038345 -0.00324339 -0.000104999 7.06817
0.065 0.01 -0.0333545 -0.0026634 -9.04091e-05 6.21091
0.07 0.01 -0.0291797 -0.00220534 -7.83654e-05 5.48402
0.075 0.01 -0.0256709 -0.00183693 -6.83557e-05 4.86591
0.08 0.01 -0.022712 -0.00153654 -5.9996e-05 4.33926
0.085 0.01 -0.0202111 -0.00128904 -5.29902e-05 3.89005
0.09 0.01 -0.0180944 -0.00108347 -4.71055e-05 3.50672
0.095 0.01 -0.0163019 -0.000911632 -4.21554e-05 3.17967
0.1 0.01 -0.014784 -0.000767234 -3.79891e-05 2.90089
0.105 0.01 -0.0134998 -0.000645346 -3.4483e-05 2.6636
0.11 0.01 -0.0124149 -0.000542045 -3.15355e-05 2.4621
0.115 0.01 -0.0115009 -0.000454167 -2.90624e-05 2.29153
0.12 0.01 -0.0107335 -0.000379138 -2.69937e-05 2.14775
0.125 0.01 -0.0100926 -0.000314847 -2.5271e-05 2.02725
0.13 0.01 -0.00956098 -0.000259553 -2.38452e-05 1.92701
0.135 0.01 -0.00912413 -0.000211814 -2.26753e-05 1.84448
0.14 0.01 -0.0087698 -0.000170431 -2.17269e-05 1.77746
0.145 0.01 -0.00848755 -0.000134402 -2.09709e-05 1.72406
0.15 0.01 -0.00826853 -0.000102894 -2.03828e-05 1.68267
0.155 0.01 -0.00810522 -7.52054e-05 -1.99419e-05 1.65192
0.16 0.01 -0.00799119 -5.07499e-05 -1.96307e-05 1.63061
0.165 0.01 -0.00792099 -2.90348e-05 -1.94343e-05 1.61774
0.17 0.01 -0.00788995 -9.64629e-06 -1.93403e-05 1.61242
0.175 0.01 -0.00789406 7.76335e-06 -1.93378e-05 1.6139
0.18 0.01 -0.00792992 2.34864e-05 -1.94178e-05 1.62153
0.185 0.01 -0.00799457 3.77684e-05 -1.95726e-05 1.63474
0.19 0.01 -0.00808549 5.08154e-05 -1.97955e-05 1.65305
0.195 0.01 -0.00820048 6.28002e-05 -2.00807e-05 1.67603
0.2 0.01 -0.00833766 7.38673e-05 -2.04234e-05 1.70332
0.205 0.01 -0.00849536 8.41373e-05 -2.08193e-05 1.73458
0.21 0.01 -0.00867213 9.37108e-05 -2.12647e-05 1.76952
0.215 0.01 -0.00886669 0.000102671 -2.17564e-05 1.8079
0.22 0.01 -0.0090779 0.000111087 -2.22914e-05 1.84948
0.225 0.01 -0.00930473 0.000119014 -2.28672e-05 1.89405
0.23 0.01 -0.00954625 0.000126499 -2.34815e-05 1.94143
0.235 0.01 -0.00980162 0.000133579 -2.41322e-05 1.99145
0.24 0.01 -0.01007 0.000140283 -2.48173e-05 2.04394
0.245 0.01 -0.0103508 0.000146634 -2.5535e-05 2.09874
0.25 0.01 -0.0106431 0.00015265 -2.62836e-05 2.15573
0.255 0.01 -0.0109464 0.000158343 -2.70615e-05 2.21475
0.26 0.01 -0.01126 0.000163723 -2.7867e-05 2.27568
0.265 0.01 -0.0115832 0.000168795 -2.86987e-05 2.33838
0.27 0.01 -0.0119155 0.000173562 -2.95549e-05 2.40273
0.275 0.01 -0.0122562 0.000178024 -3.04343e-05 2.4686
0.28 0.01 -0.0126047 0.000182181 -3.13352e-05 2.53587
0.285 0.01 -0.0129604 0.000186029 -3.22561e-05 2.6044
0.29 0.01 -0.0133226 0.000189563 -3.31955e-05 2.67406
0.295 0.01 -0.0136907 0.000192779 -3.41518e-05 2.74474
0.3 0.01 -0.0140641 0.000195669 -3.51233e-05 2.8163
0.305 0.01 -0.014442 0.000198227 -3.61085e-05 2.88861
0.31 0.01 -0.0148239 0.000200446 -3.71056e-05 2.96154
0.315 0.01 -0.0152091 0.000202317 -3.8113e-05 3.03495
0.32 0.01 -0.0155968 0.000203832 -3.91288e-05 3.1087
0.325 0.01 -0.0159864 0.000204984 -4.01514e-05 3.18265
0.33 0.01 -0.0163771 0.000205764 -4.11787e-05 3.25667
0.335 0.01 -0.0167682 0.000206164 -4.22091e-05 3.33062
0.34 0.01 -0.017159 0.000206178 -4.32404e-05 3.40433
0.345 0.01 -0.0175487 0.000205798 -4.42709e-05 3.47769
0.35 0.01 -0.0179365 0.000205018 -4.52985e-05 3.55052
0.355 0.01 -0.0183217 0.000203832 -4.63212e-05 3.62269
0.36 0.01 -0.0187034 0.000202234 -4.73369e-05 3.69405
0.365 0.01 -0.019081 0.000200219 -4.83437e-05 3.76445
0.37 0.01 -0.0194535 0.000197786 -4.93393e-05 3.83374
0.375 0.01 -0.0198203 0.000194929 -5.03216e-05 3.90177
0.38 0.01 -0.0201804 0.000191648 -5.12887e-05 3.96839
0.385 0.01 -0.0205332 0.000187941 -5.22383e-05 4.03345
0.39 0.01 -0.0208778 0.000183809 -5.31682e-05 4.0968
0.395 0.01 -0.0212134 0.000179252 -5.40765e-05 4.15831
0.4 0.01 -0.0215393 0.000174273 -5.49609e-05 4.21782
0.405 0.01 -0.0218547 0.000168876 -5.58194e-05 4.2752
0.41 0.01 -0.0221587 0.000163064 -5.66499e-05 4.33031
0.415 0.01 -0.0224507 0.000156844 -5.74503e-05 4.383
0.42 0.01 -0.02273 0.000150222 -5.82185e-05 4.43315
0.425 0.01 -0.0229957 0.000143207 -5.89527e-05 4.48063
0.43 0.01 -0.0232472 0.000135808 -5.96508e-05 4.52531
0.435 0.01 -0.0234839 0.000128036 -6.0311e-05 4.56708
0.44 0.01 -0.023705 0.000119902 -6.09314e-05 4.60582
0.445 0.01 -0.0239099 0.00011142 -6.15103e-05 4.64141
0.45 0.01 -0.024098 0.000102604 -6.20459e-05 4.67376
0.455 0.01 -0.0242689 9.34701e-05 -6.25366e-05 4.70277
0.46 0.01 -0.0244218 8.40345e-05 -6.29808e-05 4.72834
0.465 0.01 -0.0245563 7.43153e-05 -6.33772e-05 4.75039
0.47 0.01 -0.024672 6.43316e-05 -6.37243e-05 4.76884
0.475 0.01 -0.0247684 5.41036e-05 -6.40208e-05 4.78363
0.48 0.01 -0.0248451 4.36525e-05 -6.42656e-05 4.79468
0.485 0.01 -0.0249017 3.30007e-05 -6.44576e-05 4.80194
0.49 0.01 -0.024938 2.21712e-05 -6.45959e-05 4.80536
0.495 0.01 -0.0249537 1.11882e-05 -6.46796e-05 4.80491
0.5 0.01 -0.0249486 7.68112e-08 -6.47081e-05 4.80055
0.505 0.01 -0.0249224 -1.11374e-05 -6.46807e-05 4.79227
0.51 0.01 -0.0248751 -2.24278e-05 -6.45971e-05 4.78004
0.515 0.01 -0.0248067 -3.37676e-05 -6.44568e-05 4.76387
0.52 0.01 -0.024717 -4.51289e-05 -6.42597e-05 4.74375
0.525 0.01 -0.0246061 -5.64838e-05 -6.40059e-05 4.71971
0.53 0.01 -0.0244741 -6.78039e-05 -6.36952e-05 4.69177
0.535 0.01 -0.0243211 -7.90604e-05 -6.33282e-05 4.65995
0.54 0.01 -0.0241473 -9.02246e-05 -6.2905e-05 4.62431
0.545 0.01 -0.0239529 -0.000101268 -6.24263e-05 4.58488
0.55 0.01 -0.0237383 -0.000112161 -6.18927e-05 4.54174
0.555 0.01 -0.0235036 -0.000122875 -6.1305e-05 4.49494
0.56 0.01 -0.0232495 -0.000133383 -6.06643e-05 4.44457
0.565 0.01 -0.0229762 -0.000143655 -5.99716e-05 4.39072
0.57 0.01 -0.0226842 -0.000153666 -5.92281e-05 4.33347
0.575 0.01 -0.0223742 -0.000163387 -5.84353e-05 4.27294
0.58 0.01 -0.0220466 -0.000172794 -5.75946e-05 4.20923
0.585 0.01 -0.0217021 -0.00018186 -5.67077e-05 4.14246
0.59 0.01 -0.0213414 -0.000190562 -5.57764e-05 4.07276
0.595 0.01 -0.0209652 -0.000198878 -5.48024e-05 4.00025
0.6 0.01 -0.0205741 -0.000206784 -5.37879e-05 3.92509
0.605 0.01 -0.0201691 -0.000214261 -5.27349e-05 3.84742
0.61 0.01 -0.0197509 -0.000221291 -5.16457e-05 3.76738
0.615 0.01 -0.0193204 -0.000227854 -5.05224e-05 3.68513
0.62 0.01 -0.0188785 -0.000233937 -4.93675e-05 3.60084
0.625 0.01 -0.018426 -0.000239524 -4.81833e-05 3.51467
0.63 0.01 -0.0179639 -0.000244603 -4.69725e-05 3.4268
0.635 0.01 -0.0174931 -0.000249165 -4.57376e-05 3.33738
0.64 0.01 -0.0170146 -0.000253199 -4.44812e-05 3.24661
0.645 0.01 -0.0165294 -0.000256701 -4.32059e-05 3.15465
0.65 0.01 -0.0160384 -0.000259664 -4.19145e-05 3.06168
0.655 0.01 -0.0155427 -0.000262087 -4.06096e-05 2.96789
0.66 0.01 -0.0150432 -0.000263968 -3.92939e-05 2.87345
0.665 0.01 -0.0145409 -0.00026531 -3.79702e-05 2.77854
0.67 0.01 -0.0140368 -0.000266115 -3.66411e-05 2.68334
0.675 0.01 -0.0135319 -0.000266389 -3.53093e-05 2.58803
0.68 0.01 -0.0130272 -0.000266139 -3.39774e-05 2.49278
0.685 0.01 -0.0125235 -0.000265374 -3.26481e-05 2.39776
0.69 0.01 -0.0120218 -0.000264106 -3.13239e-05 2.30314
0.695 0.01 -0.0115231 -0.000262346 -3.00073e-05 2.20908
0.7 0.01 -0.0110283 -0.000260109 -2.87006e-05 2.11575
0.705 0.01 -0.010538 -0.000257411 -2.74064e-05 2.0233
0.71 0.01 -0.0100533 -0.000254269 -2.61267e-05 1.93188
0.715 0.01 -0.00957495 -0.000250703 -2.48638e-05 1.84163
0.72 0.01 -0.00910361 -0.000246732 -2.36198e-05 1.7527
0.725 0.01 -0.00864007 -0.000242376 -2.23967e-05 1.66521
0.73 0.01 -0.00818499 -0.000237659 -2.11962e-05 1.57928
0.735 0.01 -0.00773904 -0.000232603 -2.00202e-05 1.49505
0.74 0.01 -0.0073028 -0.000227232 -1.88703e-05 1.41261
0.745 0.01 -0.00687685 -0.00022157 -1.7748e-05 1.33206
0.75 0.01 -0.0064617 -0.000215642 -1.66547e-05 1.25352
0.755 0.01 -0.00605781 -0.000209472 -1.55917e-05 1.17705
0.76 0.01 -0.00566563 -0.000203087 -1.45601e-05 1.10275
0.765 0.01 -0.00528552 -0.00019651 -1.35609e-05 1.03067
0.77 0.01 -0.00491782 -0.000189768 -1.2595e-05 0.960893
0.775 0.01 -0.00456283 -0.000182885 -1.16632e-05 0.893463
0.78 0.01 -0.00422078 -0.000175886 -1.07662e-05 0.828429
0.785 0.01 -0.00389189 -0.000168794 -9.90443e-06 0.765831
0.79 0.01 -0.00357631 -0.000161634 -9.07831e-06 0.705699
0.795 0.01 -0.00327416 -0.000154428 -8.28812e-06 0.648058
0.8 0.01 -0.0029855 -0.000147198 -7.53405e-06 0.592924
0.805 0.01 -0.00271038 -0.000139965 -6.81616e-06 0.540306
0.81 0.01 -0.00244879 -0.000132751 -6.13441e-06 0.490205
0.815 0.01 -0.0022007 -0.000125573 -5.48866e-06 0.442619
0.82 0.01 -0.00196603 -0.000118451 -4.87868e-06 0.397535
0.825 0.01 -0.00174467 -0.000111401 -4.30415e-06 0.354936
0.83 0.01 -0.00153648 -0.000104441 -3.76466e-06 0.314801
0.835 0.01 -0.0013413 -9.75832e-05 -3.25973e-06 0.277101
0.84 0.01 -0.00115893 -9.08432e-05 -2.78881e-06 0.241803
0.845 0.01 -0.000989159 -8.42329e-05 -2.35128e-06 0.208869
0.85 0.01 -0.000831738 -7.77638e-05 -1.94646e-06 0.178257
0.855 0.01 -0.000686407 -7.14462e-05 -1.57362e-06 0.149921
0.86 0.01 -0.000552883 -6.52891e-05 -1.23197e-06 0.12381
0.865 0.01 -0.000430869 -5.93006e-05 -9.20701e-07 0.0998715
0.87 0.01 -0.000320051 -5.34877e-05 -6.38941e-07 0.0780492
0.875 0.01 -0.000220101 -4.78565e-05 -3.85797e-07 0.058284
0.88 0.01 -0.000130682 -4.24122e-05 -1.60348e-07 0.0405141
0.885 0.01 -5.14426e-05 -3.71594e-05 3.83537e-08 0.0246759
0.89 0.01 1.79747e-05 -3.2102e-05 2.11275e-07 0.0107032
0.895 0.01 7.79374e-05 -2.72435e-05 3.59402e-07 -0.00147183
0.9 0.01 0.000128821 -2.25871e-05 4.83738e-07 -0.011919
0.905 0.01 0.000171008 -1.81361e-05 5.853e-07 -0.0207102
0.91 0.01 0.000204889 -1.38939e-05 6.65124e-07 -0.0279192
0.915 0.01 0.000230866 -9.86479e-06 7.24264e-07 -0.0336219
0.92 0.01 0.00024935 -6.05383e-06 7.63795e-07 -0.0378969
0.925 0.01 0.000260764 -2.46778e-06 7.84823e-07 -0.0408259
0.93 0.01 0.000265549 8.84455e-07 7.88493e-07 -0.0424942
0.935 0.01 0.000264167 3.99098e-06 7.75997e-07 -0.0429917
0.94 0.01 0.000257108 6.83591e-06 7.48599e-07 -0.0424139
0.945 0.01 0.000244896 9.39805e-06 7.07652e-07 -0.0408637
0.95 0.01 0.000228101 1.16492e-05 6.54631e-07 -0.0384529
0.955 0.01 0.000207353 1.35521e-05 5.9117e-07 -0.0353043
0.96 0.01 0.000183356 1.50573e-05 5.19118e-07 -0.0315549
0.965 0.01 0.000156911 1.60995e-05 4.40604e-07 -0.0273581
0.97 0.01 0.000128941 1.65927e-05 3.58128e-07 -0.0228875
0.975 0.01 0.000100518 1.64242e-05 2.7468e-07 -0.0183394
0.98 0.01 7.28993e-05 1.545e-05 1.93888e-07 -0.0139322
0.985 0.01 4.75443e-05 1.34984e-05 1.20182e-07 -0.00990051
0.99 0.01 2.61078e-05 1.04087e-05 5.89044e-08 -0.00646952
0.995 0.01 1.03218e-05 6.19367e-06 1.60941e-08 -0.00378861
1 0.01 1.60539e-06 1.60941e-06 -3.03248e-09 -0.00177113
0 0.015 0 0 -0.00128431 0
0.005 0.015 0 0 0 -255.98
0.01 0.015 -0.152807 0.184777 -0.00180025 -79.2786
0.015 0.015 -0.206109 -0.0237972 -0.00184777 -16.6468
0.02 0.015 -0.20439 -0.0574158 -0.00156228 2.32913
0.025 0.015 -0.184374 -0.0522443 -0.00127361 7.95864
0.03 0.015 -0.160946 -0.0415192 -0.00103983 9.2941
0.035 0.015 -0.139093 -0.0322541 -0.000858421 9.17052
0.04 0.015 -0.120083 -0.0252575 -0.000717293 8.5586
0.045 0.015 -0.10393 -0.0200922 -0.000605846 7.81301
0.05 0.015 -0.0902913 -0.0162352 -0.000516371 7.06724
0.055 0.015 -0.0787731 -0.0132922 -0.000443494 6.37054
0.06 0.015 -0.0690231 -0.0109949 -0.000383449 5.73883
0.065 0.015 -0.0607476 -0.00916522 -0.000333544 5.17451
0.07 0.015 -0.0537069 -0.00768352 -0.000291797 4.67462
0.075 0.015 -0.0477061 -0.00646773 -0.000256709 4.23414
0.08 0.015 -0.0425855 -0.00545981 -0.000227119 3.84755
0.085 0.015 -0.0382131 -0.0046175 -0.00020211 3.50935
0.09 0.015 -0.0344795 -0.00390914 -0.000180944 3.21437
0.095 0.015 -0.0312927 -0.00331038 -0.000163019 2.95788
0.1 0.015 -0.0285754 -0.00280211 -0.00014784 2.73557
0.105 0.015 -0.0262624 -0.00236905 -0.000134997 2.5436
0.11 0.015 -0.0242982 -0.00199884 -0.000124149 2.37852
0.115 0.015 -0.0226356 -0.00168135 -0.000115008 2.23727
0.12 0.015 -0.0212347 -0.00140823 -0.000107335 2.11714
0.125 0.015 -0.020061 -0.00117252 -0.000100926 2.01574
0.13 0.015 -0.0190854 -0.000968446 -9.56094e-05 1.93095
0.135 0.015 -0.0182829 -0.000791149 -9.1241e-05 1.86093
0.14 0.015 -0.0176321 -0.000636554 -8.76976e-05 1.80404
0.145 0.015 -0.0171147 -0.000501235 -8.48751e-05 1.75886
0.15 0.015 -0.0167151 -0.000382298 -8.2685e-05 1.72414
0.155 0.015 -0.0164197 -0.000277305 -8.10519e-05 1.69879
0.16 0.015 -0.016217 -0.000184192 -7.99116e-05 1.68184
0.165 0.015 -0.0160971 -0.000101216 -7.92097e-05 1.67247
0.17 0.015 -0.0160514 -2.69025e-05 -7.88992e-05 1.66992
0.175 0.015 -0.0160727 3.99949e-05 -7.89404e-05 1.67357
0.18 0.015 -0.0161545 0.00010053 -7.92989e-05 1.68285
0.185 0.015 -0.0162914 0.000155594 -7.99454e-05 1.69726
0.19 0.015 -0.0164787 0.000205939 -8.08546e-05 1.71637
0.195 0.015 -0.016712 0.000252196 -8.20046e-05 1.73978
0.2 0.015 -0.0169879 0.000294898 -8.33764e-05 1.76715
0.205 0.015 -0.0173032 0.000334492 -8.49534e-05 1.79819
0.21 0.015 -0.017655 0.000371351 -8.67211e-05 1.83261
0.215 0.015 -0.0180408 0.000405785 -8.86668e-05 1.87017
0.22 0.015 -0.0184585 0.000438053 -9.07788e-05 1.91064
0.225 0.015 -0.0189058 0.000468367 -9.30472e-05 1.95382
0.23 0.015 -0.0193811 0.0004969 -9.54624e-05 1.99952
0.235 0.015 -0.0198826 0.000523794 -9.80161e-05 2.04757
0.24 0.015 -0.0204088 0.000549159 -0.0001007 2.09779
0.245 0.015 -0.020958 0.000573086 -0.000103508 2.15004
0.25 0.015 -0.021529 0.000595643 -0.000106431 2.20417
0.255 0.015 -0.0221203 0.00061688 -0.000109464 2.26003
0.26 0.015 -0.0227306 0.000636834 -0.0001126 2.31748
0.265 0.015 -0.0233587 0.000655529 -0.000115832 2.37639
0.27 0.015 -0.0240032 0.000672978 -0.000119155 2.43663
0.275 0.015 -0.0246629 0.000689186 -0.000122562 2.49806
0.28 0.015 -0.0253366 0.000704151 -0.000126047 2.56055
0.285 0.015 -0.0260229 0.000717865 -0.000129604 2.62398
0.29 0.015 -0.0267207 0.000730313 -0.000133226 2.68822
0.295 0.015 -0.0274286 0.000741478 -0.000136907 2.75313
0.3 0.015 -0.0281454 0.000751341 -0.000140641 2.81859
0.305 0.015 -0.0288696 0.000759877 -0.00014442 2.88447
0.31 0.015 -0.0296001 0.000767064 -0.00014824 2.95063
0.315 0.015 -0.0303355 0.000772875 -0.000152091 3.01694
0.32 0.015 -0.0310743 0.000777284 -0.000155969 3.08327
0.325 0.015 -0.0318152 0.000780267 -0.000159864 3.14949
0.33 0.015 -0.0325568 0.000781798 -0.000163772 3.21546
0.335 0.015 -0.0332977 0.000781853 -0.000167683 3.28105
0.34 0.015 -0.0340364 0.000780409 -0.00017159 3.34613
0.345 0.015 -0.0347715 0.000777446 -0.000175487 3.41055
0.35 0.015 -0.0355015 0.000772944 -0.000179365 3.47419
0.355 0.015 -0.0362249 0.000766887 -0.000183217 3.53691
0.36 0.015 -0.0369402 0.000759261 -0.000187035 3.59859
0.365 0.015 -0.037646 0.000750055 -0.00019081 3.65907
0.37 0.015 -0.0383407 0.000739261 -0.000194536 3.71825
0.375 0.015 -0.0390229 0.000726875 -0.000198203 3.77597
0.38 0.015 -0.039691 0.000712896 -0.000201805 3.83213
0.385 0.015 -0.0403436 0.000697327 -0.000205333 3.88658
0.39 0.015 -0.0409791 0.000680173 -0.000208779 3.93921
0.395 0.015 -0.0415963 0.000661447 -0.000212135 3.9899
0.4 0.015 -0.0421935 0.000641161 -0.000215394 4.03853
0.405 0.015 -0.0427694 0.000619336 -0.000218547 4.08498
0.41 0.015 -0.0433226 0.000595995 -0.000221588 4.12914
0.415 0.015 -0.0438517 0.000571164 -0.000224508 4.1709
0.42 0.015 -0.0443554 0.000544876 -0.000227301 4.21016
0.425 0.015 -0.0448323 0.000517166 -0.000229958 4.24683
0.43 0.015 -0.0452814 0.000488076 -0.000232473 4.2808
0.435 0.015 -0.0457013 0.00045765 -0.000234839 4.31199
0.44 0.015 -0.0460908 0.000425938 -0.00023705 4.34031
0.445 0.015 -0.0464489 0.000392993 -0.0002391 4.36569
0.45 0.015 -0.0467746 0.000358873 -0.000240981 4.38804
0.455 0.015 -0.0470668 0.00032364 -0.00024269 4.40731
0.46 0.015 -0.0473246 0.00028736 -0.000244219 4.42343
0.465 0.015 -0.0475472 0.000250103 -0.000245564 4.43635
0.47 0.015 -0.0477337 0.000211943 -0.000246721 4.44601
0.475 0.015 -0.0478835 0.000172958 -0.000247685 4.45239
0.48 0.015 -0.0479959 0.000133228 -0.000248452 4.45543
0.485 0.015 -0.0480703 9.28369e-05 -0.000249018 4.45511
0.49 0.015 -0.0481063 5.18734e-05 -0.000249381 4.45142
0.495 0.015 -0.0481034 1.04272e-05 -0.000249538 4.44433
0.5 0.015 -0.0480614 -3.14087e-05 -0.000249487 4.43384
0.505 0.015 -0.04798 -7.3539e-05 -0.000249225 4.41995
0.51 0.015 -0.0478591 -0.000115866 -0.000248753 4.40267
0.515 0.015 -0.0476986 -0.000158291 -0.000248068 4.382
0.52 0.015 -0.0474985 -0.000200712 -0.000247171 4.35798
0.525 0.015 -0.047259 -0.000243028 -0.000246062 4.33063
0.53 0.015 -0.0469804 -0.000285136 -0.000244742 4.29998
0.535 0.015 -0.0466629 -0.000326932 -0.000243212 4.26608
0.54 0.015 -0.046307 -0.000368313 -0.000241474 4.22899
0.545 0.015 -0.0459131 -0.000409174 -0.000239531 4.18875
0.55 0.015 -0.0454818 -0.000449413 -0.000237384 4.14543
0.555 0.015 -0.0450139 -0.000488929 -0.000235038 4.09909
0.56 0.015 -0.0445101 -0.00052762 -0.000232496 4.04983
0.565 0.015 -0.0439713 -0.000565388 -0.000229763 3.99772
0.57 0.015 -0.0433984 -0.000602135 -0.000226844 3.94284
0.575 0.015 -0.0427924 -0.000637769 -0.000223743 3.8853
0.58 0.015 -0.0421545 -0.000672197 -0.000220467 3.8252
0.585 0.015 -0.0414858 -0.000705332 -0.000217022 3.76264
0.59 0.015 -0.0407877 -0.00073709 -0.000213415 3.69772
0.595 0.015 -0.0400614 -0.000767391 -0.000209653 3.63058
0.6 0.015 -0.0393083 -0.000796159 -0.000205743 3.56132
0.605 0.015 -0.03853 -0.000823324 -0.000201693 3.49008
0.61 0.015 -0.0377279 -0.00084882 -0.000197511 3.41698
0.615 0.015 -0.0369035 -0.000872588 -0.000193206 3.34214
0.62 0.015 -0.0360587 -0.000894574 -0.000188786 3.26572
0.625 0.015 -0.0351949 -0.000914729 -0.000184261 3.18784
0.63 0.015 -0.0343138 -0.000933012 -0.00017964 3.10864
0.635 0.015 -0.0334174 -0.000949388 -0.000174932 3.02827
0.64 0.015 -0.0325072 -0.000963828 -0.000170147 2.94686
0.645 0.015 -0.0315851 -0.000976311 -0.000165295 2.86457
0.65 0.015 -0.0306528 -0.000986821 -0.000160385 2.78153
0.655 0.015 -0.0297123 -0.000995351 -0.000155428 2.6979
0.66 0.015 -0.0287652 -0.0010019 -0.000150433 2.61381
0.665 0.015 -0.0278134 -0.00100648 -0.00014541 2.52941
0.67 0.015 -0.0268586 -0.00100909 -0.000140369 2.44485
0.675 0.015 -0.0259027 -0.00100976 -0.00013532 2.36026
0.68 0.015 -0.0249474 -0.00100852 -0.000130272 2.27579
0.685 0.015 -0.0239945 -0.0010054 -0.000125236 2.19157
0.69 0.015 -0.0230455 -0.00100044 -0.000120219 2.10774
0.695 0.015 -0.0221023 -0.000993676 -0.000115232 2.02443
0.7 0.015 -0.0211663 -0.000985174 -0.000110283 1.94176
0.705 0.015 -0.0202392 -0.000974985 -0.000105381 1.85988
0.71 0.015 -0.0193224 -0.000963172 -0.000100534 1.77888
0.715 0.015 -0.0184175 -0.000949803 -9.57501e-05 1.6989
0.72 0.015 -0.0175257 -0.000934948 -9.10368e-05 1.62005
0.725 0.015 -0.0166485 -0.000918683 -8.64012e-05 1.54242
0.73 0.015 -0.0157871 -0.000901088 -8.18505e-05 1.46613
0.735 0.015 -0.0149426 -0.000882244 -7.73909e-05 1.39127
0.74 0.015 -0.0141162 -0.000862236 -7.30285e-05 1.31793
0.745 0.015 -0.0133089 -0.000841152 -6.87689e-05 1.2462
0.75 0.015 -0.0125217 -0.00081908 -6.46174e-05 1.17616
0.755 0.015 -0.0117554 -0.00079611 -6.05785e-05 1.10787
0.76 0.015 -0.0110108 -0.000772332 -5.66566e-05 1.04142
0.765 0.015 -0.0102886 -0.000747838 -5.28554e-05 0.976853
0.77 0.015 -0.00958957 -0.000722717 -4.91785e-05 0.914232
0.775 0.015 -0.00891412 -0.000697061 -4.56285e-05 0.853604
0.78 0.015 -0.00826275 -0.000670957 -4.2208e-05 0.795013
0.785 0.015 -0.00763586 -0.000644493 -3.89191e-05 0.738494
0.79 0.015 -0.00703376 -0.000617755 -3.57633e-05 0.684079
0.795 0.015 -0.00645669 -0.000590826 -3.27417e-05 0.631791
0.8 0.015 -0.00590479 -0.000563787 -2.98551e-05 0.581649
0.805 0.015 -0.00537817 -0.000536716 -2.71039e-05 0.533666
0.81 0.015 -0.00487684 -0.000509687 -2.4488e-05 0.487848
0.815 0.015 -0.00440075 -0.000482771 -2.2007e-05 0.444198
0.82 0.015 -0.00394978 -0.000456038 -1.96603e-05 0.402711
0.825 0.015 -0.00352377 -0.000429549 -1.74466e-05 0.363378
0.83 0.015 -0.00312247 -0.000403366 -1.53648e-05 0.326185