Title=" Lid Driven Flow"
VARIABLES="X","Y","U","V","psi","xi"
ZONE T= "BOX", I= 201, J=201, F=POINT
0 0 0 0 9.67545e-05 0
0.005 0 0 0 0 0
0.01 0 0 0 0 0
0.015 0 0 0 0 161.886
0.02 0 0 0 0 176.134
0.025 0 0 0 0 155.661
0.03 0 0 0 0 133.339
0.035 0 0 0 0 115.894
0.04 0 0 0 0 103.109
0.045 0 0 0 0 93.6309
0.05 0 0 0 0 86.3425
0.055 0 0 0 0 80.5074
0.06 0 0 0 0 75.6655
0.065 0 0 0 0 71.5285
0.07 0 0 0 0 67.91
0.075 0 0 0 0 64.6859
0.08 0 0 0 0 61.7707
0.085 0 0 0 0 59.1037
0.09 0 0 0 0 56.6412
0.095 0 0 0 0 54.3507
0.1 0 0 0 0 52.208
0.105 0 0 0 0 50.1943
0.11 0 0 0 0 48.2952
0.115 0 0 0 0 46.4989
0.12 0 0 0 0 44.7962
0.125 0 0 0 0 43.1791
0.13 0 0 0 0 41.6409
0.135 0 0 0 0 40.1761
0.14 0 0 0 0 38.7794
0.145 0 0 0 0 37.4463
0.15 0 0 0 0 36.1726
0.155 0 0 0 0 34.9545
0.16 0 0 0 0 33.7885
0.165 0 0 0 0 32.6711
0.17 0 0 0 0 31.5992
0.175 0 0 0 0 30.5698
0.18 0 0 0 0 29.5801
0.185 0 0 0 0 28.6273
0.19 0 0 0 0 27.7088
0.195 0 0 0 0 26.8224
0.2 0 0 0 0 25.9656
0.205 0 0 0 0 25.1363
0.21 0 0 0 0 24.3325
0.215 0 0 0 0 23.5522
0.22 0 0 0 0 22.7936
0.225 0 0 0 0 22.0552
0.23 0 0 0 0 21.3353
0.235 0 0 0 0 20.6325
0.24 0 0 0 0 19.9456
0.245 0 0 0 0 19.2734
0.25 0 0 0 0 18.6148
0.255 0 0 0 0 17.9689
0.26 0 0 0 0 17.3349
0.265 0 0 0 0 16.712
0.27 0 0 0 0 16.0998
0.275 0 0 0 0 15.4977
0.28 0 0 0 0 14.9053
0.285 0 0 0 0 14.3224
0.29 0 0 0 0 13.7487
0.295 0 0 0 0 13.1842
0.3 0 0 0 0 12.6289
0.305 0 0 0 0 12.0827
0.31 0 0 0 0 11.5459
0.315 0 0 0 0 11.0186
0.32 0 0 0 0 10.501
0.325 0 0 0 0 9.99349
0.33 0 0 0 0 9.49631
0.335 0 0 0 0 9.00985
0.34 0 0 0 0 8.53447
0.345 0 0 0 0 8.07057
0.35 0 0 0 0 7.61854
0.355 0 0 0 0 7.17876
0.36 0 0 0 0 6.75162
0.365 0 0 0 0 6.33747
0.37 0 0 0 0 5.93666
0.375 0 0 0 0 5.54948
0.38 0 0 0 0 5.1762
0.385 0 0 0 0 4.81706
0.39 0 0 0 0 4.47223
0.395 0 0 0 0 4.14185
0.4 0 0 0 0 3.826
0.405 0 0 0 0 3.52471
0.41 0 0 0 0 3.23796
0.415 0 0 0 0 2.96568
0.42 0 0 0 0 2.70773
0.425 0 0 0 0 2.46395
0.43 0 0 0 0 2.23411
0.435 0 0 0 0 2.01793
0.44 0 0 0 0 1.81512
0.445 0 0 0 0 1.62531
0.45 0 0 0 0 1.44813
0.455 0 0 0 0 1.28316
0.46 0 0 0 0 1.12997
0.465 0 0 0 0 0.988098
0.47 0 0 0 0 0.857066
0.475 0 0 0 0 0.736387
0.48 0 0 0 0 0.625562
0.485 0 0 0 0 0.524087
0.49 0 0 0 0 0.431454
0.495 0 0 0 0 0.347158
0.5 0 0 0 0 0.270695
0.505 0 0 0 0 0.201566
0.51 0 0 0 0 0.139281
0.515 0 0 0 0 0.0833605
0.52 0 0 0 0 0.0333354
0.525 0 0 0 0 -0.0112475
0.53 0 0 0 0 -0.0508254
0.535 0 0 0 0 -0.0858172
0.54 0 0 0 0 -0.116622
0.545 0 0 0 0 -0.143615
0.55 0 0 0 0 -0.167152
0.555 0 0 0 0 -0.187561
0.56 0 0 0 0 -0.205146
0.565 0 0 0 0 -0.220186
0.57 0 0 0 0 -0.232934
0.575 0 0 0 0 -0.243618
0.58 0 0 0 0 -0.252442
0.585 0 0 0 0 -0.259589
0.59 0 0 0 0 -0.265216
0.595 0 0 0 0 -0.269467
0.6 0 0 0 0 -0.272462
0.605 0 0 0 0 -0.274312
0.61 0 0 0 0 -0.275109
0.615 0 0 0 0 -0.274938
0.62 0 0 0 0 -0.273873
0.625 0 0 0 0 -0.271983
0.63 0 0 0 0 -0.269329
0.635 0 0 0 0 -0.265969
0.64 0 0 0 0 -0.261959
0.645 0 0 0 0 -0.257352
0.65 0 0 0 0 -0.252201
0.655 0 0 0 0 -0.246556
0.66 0 0 0 0 -0.240471
0.665 0 0 0 0 -0.233997
0.67 0 0 0 0 -0.227184
0.675 0 0 0 0 -0.220084
0.68 0 0 0 0 -0.212748
0.685 0 0 0 0 -0.205225
0.69 0 0 0 0 -0.197565
0.695 0 0 0 0 -0.189813
0.7 0 0 0 0 -0.182017
0.705 0 0 0 0 -0.174217
0.71 0 0 0 0 -0.166456
0.715 0 0 0 0 -0.158771
0.72 0 0 0 0 -0.151197
0.725 0 0 0 0 -0.143765
0.73 0 0 0 0 -0.136505
0.735 0 0 0 0 -0.129442
0.74 0 0 0 0 -0.122598
0.745 0 0 0 0 -0.115992
0.75 0 0 0 0 -0.109641
0.755 0 0 0 0 -0.103556
0.76 0 0 0 0 -0.0977478
0.765 0 0 0 0 -0.0922246
0.77 0 0 0 0 -0.0869911
0.775 0 0 0 0 -0.08205
0.78 0 0 0 0 -0.077402
0.785 0 0 0 0 -0.0730459
0.79 0 0 0 0 -0.0689788
0.795 0 0 0 0 -0.0651962
0.8 0 0 0 0 -0.0616922
0.805 0 0 0 0 -0.0584598
0.81 0 0 0 0 -0.0554906
0.815 0 0 0 0 -0.0527756
0.82 0 0 0 0 -0.0503046
0.825 0 0 0 0 -0.0480665
0.83 0 0 0 0 -0.0460497
0.835 0 0 0 0 -0.0442415
0.84 0 0 0 0 -0.0426289
0.845 0 0 0 0 -0.0411978
0.85 0 0 0 0 -0.0399337
0.855 0 0 0 0 -0.0388212
0.86 0 0 0 0 -0.0378444
0.865 0 0 0 0 -0.0369865
0.87 0 0 0 0 -0.0362302
0.875 0 0 0 0 -0.0355573
0.88 0 0 0 0 -0.0349491
0.885 0 0 0 0 -0.0343861
0.89 0 0 0 0 -0.0338482
0.895 0 0 0 0 -0.0333148
0.9 0 0 0 0 -0.0327649
0.905 0 0 0 0 -0.0321772
0.91 0 0 0 0 -0.0315303
0.915 0 0 0 0 -0.0308029
0.92 0 0 0 0 -0.0299745
0.925 0 0 0 0 -0.0290251
0.93 0 0 0 0 -0.0279364
0.935 0 0 0 0 -0.026692
0.94 0 0 0 0 -0.0252785
0.945 0 0 0 0 -0.023686
0.95 0 0 0 0 -0.0219097
0.955 0 0 0 0 -0.0199507
0.96 0 0 0 0 -0.0178186
0.965 0 0 0 0 -0.0155326
0.97 0 0 0 0 -0.0131249
0.975 0 0 0 0 -0.0106435
0.98 0 0 0 0 -0.00815643
0.985 0 0 0 0 -0.00575669
0.99 0 0 0 0 -0.0035672
0.995 0 0 0 0 -0.00174421
1 0 0 0 0 -0.000469627
0 0.005 0 0 0 0
0.005 0.005 0 0 0 0
0.01 0.005 0 0 0 73.7212
0.015 0.005 0 0 0 61.9587
0.02 0.005 0 0 0 45.4787
0.025 0.005 0 0 0 33.6437
0.03 0.005 0 0 0 25.7781
0.035 0.005 0 0 0 20.4733
0.04 0.005 0 0 0 16.7611
0.045 0.005 0 0 0 14.0615
0.05 0.005 0 0 0 12.0309
0.055 0.005 0 0 0 10.4599
0.06 0.005 0 0 0 9.21621
0.065 0.005 0 0 0 8.2128
0.07 0.005 0 0 0 7.39024
0.075 0.005 0 0 0 6.7068
0.08 0.005 0 0 0 6.13233
0.085 0.005 0 0 0 5.64458
0.09 0.005 0 0 0 5.2268
0.095 0.005 0 0 0 4.86616
0.1 0.005 0 0 0 4.5527
0.105 0.005 0 0 0 4.27857
0.11 0.005 0 0 0 4.03752
0.115 0.005 0 0 0 3.82449
0.12 0.005 0 0 0 3.63541
0.125 0.005 0 0 0 3.46689
0.13 0.005 0 0 0 3.31617
0.135 0.005 0 0 0 3.18091
0.14 0.005 0 0 0 3.05916
0.145 0.005 0 0 0 2.94928
0.15 0.005 0 0 0 2.84985
0.155 0.005 0 0 0 2.75968
0.16 0.005 0 0 0 2.67774
0.165 0.005 0 0 0 2.60312
0.17 0.005 0 0 0 2.53505
0.175 0.005 0 0 0 2.47284
0.18 0.005 0 0 0 2.41591
0.185 0.005 0 0 0 2.36372
0.19 0.005 0 0 0 2.31581
0.195 0.005 0 0 0 2.27177
0.2 0.005 0 0 0 2.23123
0.205 0.005 0 0 0 2.19386
0.21 0.005 0 0 0 2.15937
0.215 0.005 0 0 0 2.12749
0.22 0.005 0 0 0 2.09797
0.225 0.005 0 0 0 2.07061
0.23 0.005 0 0 0 2.04521
0.235 0.005 0 0 0 2.02159
0.24 0.005 0 0 0 1.99958
0.245 0.005 0 0 0 1.97903
0.25 0.005 0 0 0 1.95982
0.255 0.005 0 0 0 1.94181
0.26 0.005 0 0 0 1.92489
0.265 0.005 0 0 0 1.90895
0.27 0.005 0 0 0 1.89389
0.275 0.005 0 0 0 1.87963
0.28 0.005 0 0 0 1.86608
0.285 0.005 0 0 0 1.85316
0.29 0.005 0 0 0 1.8408
0.295 0.005 0 0 0 1.82894
0.3 0.005 0 0 0 1.81751
0.305 0.005 0 0 0 1.80645
0.31 0.005 0 0 0 1.79572
0.315 0.005 0 0 0 1.78526
0.32 0.005 0 0 0 1.77502
0.325 0.005 0 0 0 1.76497
0.33 0.005 0 0 0 1.75505
0.335 0.005 0 0 0 1.74525
0.34 0.005 0 0 0 1.73551
0.345 0.005 0 0 0 1.72582
0.35 0.005 0 0 0 1.71613
0.355 0.005 0 0 0 1.70643
0.36 0.005 0 0 0 1.69668
0.365 0.005 0 0 0 1.68687
0.37 0.005 0 0 0 1.67697
0.375 0.005 0 0 0 1.66697
0.38 0.005 0 0 0 1.65684
0.385 0.005 0 0 0 1.64657
0.39 0.005 0 0 0 1.63614
0.395 0.005 0 0 0 1.62555
0.4 0.005 0 0 0 1.61477
0.405 0.005 0 0 0 1.60381
0.41 0.005 0 0 0 1.59265
0.415 0.005 0 0 0 1.58128
0.42 0.005 0 0 0 1.5697
0.425 0.005 0 0 0 1.55789
0.43 0.005 0 0 0 1.54587
0.435 0.005 0 0 0 1.53362
0.44 0.005 0 0 0 1.52114
0.445 0.005 0 0 0 1.50843
0.45 0.005 0 0 0 1.49548
0.455 0.005 0 0 0 1.48231
0.46 0.005 0 0 0 1.4689
0.465 0.005 0 0 0 1.45527
0.47 0.005 0 0 0 1.44141
0.475 0.005 0 0 0 1.42733
0.48 0.005 0 0 0 1.41303
0.485 0.005 0 0 0 1.39851
0.49 0.005 0 0 0 1.38378
0.495 0.005 0 0 0 1.36885
0.5 0.005 0 0 0 1.35372
0.505 0.005 0 0 0 1.33839
0.51 0.005 0 0 0 1.32288
0.515 0.005 0 0 0 1.30719
0.52 0.005 0 0 0 1.29132
0.525 0.005 0 0 0 1.27529
0.53 0.005 0 0 0 1.2591
0.535 0.005 0 0 0 1.24276
0.54 0.005 0 0 0 1.22627
0.545 0.005 0 0 0 1.20965
0.55 0.005 0 0 0 1.19291
0.555 0.005 0 0 0 1.17605
0.56 0.005 0 0 0 1.15908
0.565 0.005 0 0 0 1.142
0.57 0.005 0 0 0 1.12484
0.575 0.005 0 0 0 1.10758
0.58 0.005 0 0 0 1.09026
0.585 0.005 0 0 0 1.07286
0.59 0.005 0 0 0 1.05541
0.595 0.005 0 0 0 1.0379
0.6 0.005 0 0 0 1.02035
0.605 0.005 0 0 0 1.00276
0.61 0.005 0 0 0 0.985139
0.615 0.005 0 0 0 0.9675
0.62 0.005 0 0 0 0.949847
0.625 0.005 0 0 0 0.932187
0.63 0.005 0 0 0 0.914526
0.635 0.005 0 0 0 0.896872
0.64 0.005 0 0 0 0.879231
0.645 0.005 0 0 0 0.861609
0.65 0.005 0 0 0 0.844012
0.655 0.005 0 0 0 0.826447
0.66 0.005 0 0 0 0.808918
0.665 0.005 0 0 0 0.791431
0.67 0.005 0 0 0 0.773992
0.675 0.005 0 0 0 0.756605
0.68 0.005 0 0 0 0.739275
0.685 0.005 0 0 0 0.722007
0.69 0.005 0 0 0 0.704805
0.695 0.005 0 0 0 0.687674
0.7 0.005 0 0 0 0.670617
0.705 0.005 0 0 0 0.653638
0.71 0.005 0 0 0 0.636742
0.715 0.005 0 0 0 0.619931
0.72 0.005 0 0 0 0.60321
0.725 0.005 0 0 0 0.586582
0.73 0.005 0 0 0 0.570049
0.735 0.005 0 0 0 0.553616
0.74 0.005 0 0 0 0.537286
0.745 0.005 0 0 0 0.521061
0.75 0.005 0 0 0 0.504945
0.755 0.005 0 0 0 0.488942
0.76 0.005 0 0 0 0.473054
0.765 0.005 0 0 0 0.457284
0.77 0.005 0 0 0 0.441637
0.775 0.005 0 0 0 0.426115
0.78 0.005 0 0 0 0.410723
0.785 0.005 0 0 0 0.395464
0.79 0.005 0 0 0 0.380342
0.795 0.005 0 0 0 0.365361
0.8 0.005 0 0 0 0.350525
0.805 0.005 0 0 0 0.335841
0.81 0.005 0 0 0 0.321312
0.815 0.005 0 0 0 0.306943
0.82 0.005 0 0 0 0.292742
0.825 0.005 0 0 0 0.278713
0.83 0.005 0 0 0 0.264864
0.835 0.005 0 0 0 0.251201
0.84 0.005 0 0 0 0.237732
0.845 0.005 0 0 0 0.224466
0.85 0.005 0 0 0 0.211412
0.855 0.005 0 0 0 0.198577
0.86 0.005 0 0 0 0.185974
0.865 0.005 0 0 0 0.173612
0.87 0.005 0 0 0 0.161504
0.875 0.005 0 0 0 0.149662
0.88 0.005 0 0 0 0.1381
0.885 0.005 0 0 0 0.126831
0.89 0.005 0 0 0 0.115872
0.895 0.005 0 0 0 0.105239
0.9 0.005 0 0 0 0.0949503
0.905 0.005 0 0 0 0.0850252
0.91 0.005 0 0 0 0.0754843
0.915 0.005 0 0 0 0.0663497
0.92 0.005 0 0 0 0.0576454
0.925 0.005 0 0 0 0.0493968
0.93 0.005 0 0 0 0.0416313
0.935 0.005 0 0 0 0.0343781
0.94 0.005 0 0 0 0.0276684
0.945 0.005 0 0 0 0.0215351
0.95 0.005 0 0 0 0.0160128
0.955 0.005 0 0 0 0.0111376
0.96 0.005 0 0 0 0.00694585
0.965 0.005 0 0 0 0.00347335
0.97 0.005 0 0 0 0.000752725
0.975 0.005 0 0 0 -0.00119072
0.98 0.005 0 0 0 -0.00234647
0.985 0.005 0 0 0 -0.00273262
0.99 0.005 0 0 0 -0.00242127
0.995 0.005 0 0 0 -0.00158498
1 0.005 0 0 0 -0.000573963
0 0.01 0 0 -0.000573963 0
0.005 0.01 0 0 0 -326.279
0.01 0.01 -0.179926 0.0774483 -0.000921514 -44.4927
0.015 0.01 -0.184387 -0.0353031 -0.000774483 9.4374
0.02 0.01 -0.155541 -0.0353937 -0.000568484 19.0602
0.025 0.01 -0.126585 -0.0246257 -0.000420546 18.9753
0.03 0.01 -0.103412 -0.0164629 -0.000322227 16.8669
0.035 0.01 -0.0857456 -0.0112712 -0.000255916 14.6213
0.04 0.01 -0.0723068 -0.00801472 -0.000209514 12.6679
0.045 0.01 -0.0619523 -0.00591285 -0.000175769 11.0539
0.05 0.01 -0.0538388 -0.00450209 -0.000150386 9.73452
0.055 0.01 -0.0473726 -0.0035183 -0.000130748 8.65283
0.06 0.01 -0.042138 -0.00280883 -0.000115203 7.7591
0.065 0.01 -0.0378407 -0.00228246 -0.00010266 7.01394
0.07 0.01 -0.0342691 -0.00188249 -9.23779e-05 6.38695
0.075 0.01 -0.0312679 -0.00157238 -8.38349e-05 5.85484
0.08 0.01 -0.0287215 -0.00132776 -7.6654e-05 5.39962
0.085 0.01 -0.0265423 -0.0011319 -7.05572e-05 5.00733
0.09 0.01 -0.0246631 -0.00097301 -6.53349e-05 4.667
0.095 0.01 -0.0230313 -0.00084261 -6.0827e-05 4.36996
0.1 0.01 -0.0216057 -0.000734479 -5.69087e-05 4.10926
0.105 0.01 -0.0203533 -0.000643977 -5.34821e-05 3.87931
0.11 0.01 -0.0192476 -0.000567591 -5.04689e-05 3.67554
0.115 0.01 -0.0182669 -0.000502626 -4.78061e-05 3.49423
0.12 0.01 -0.0173935 -0.00044699 -4.54425e-05 3.33227
0.125 0.01 -0.0166128 -0.000399041 -4.33361e-05 3.18711
0.13 0.01 -0.0159125 -0.000357476 -4.1452e-05 3.05657
0.135 0.01 -0.0152825 -0.000321253 -3.97613e-05 2.93885
0.14 0.01 -0.0147141 -0.000289533 -3.82395e-05 2.8324
0.145 0.01 -0.0141999 -0.000261631 -3.68659e-05 2.7359
0.15 0.01 -0.0137336 -0.000236987 -3.56231e-05 2.64823
0.155 0.01 -0.0133099 -0.00021514 -3.4496e-05 2.5684
0.16 0.01 -0.0129241 -0.000195706 -3.34717e-05 2.49557
0.165 0.01 -0.0125721 -0.000178363 -3.2539e-05 2.42901
0.17 0.01 -0.0122504 -0.000162845 -3.16881e-05 2.36806
0.175 0.01 -0.011956 -0.000148922 -3.09105e-05 2.31218
0.18 0.01 -0.0116859 -0.000136402 -3.01989e-05 2.26084
0.185 0.01 -0.011438 -0.00012512 -2.95465e-05 2.21363
0.19 0.01 -0.01121 -0.000114936 -2.89477e-05 2.17013
0.195 0.01 -0.0110001 -0.000105728 -2.83972e-05 2.13
0.2 0.01 -0.0108065 -9.7391e-05 -2.78905e-05 2.09294
0.205 0.01 -0.0106277 -8.98339e-05 -2.74234e-05 2.05865
0.21 0.01 -0.0104624 -8.29776e-05 -2.69922e-05 2.02688
0.215 0.01 -0.0103093 -7.67525e-05 -2.65937e-05 1.99742
0.22 0.01 -0.0101673 -7.1098e-05 -2.62248e-05 1.97004
0.225 0.01 -0.0100355 -6.59605e-05 -2.58828e-05 1.94456
0.23 0.01 -0.00991285 -6.12925e-05 -2.55653e-05 1.92081
0.235 0.01 -0.00979856 -5.70523e-05 -2.527e-05 1.89864
0.24 0.01 -0.00969188 -5.32025e-05 -2.49949e-05 1.8779
0.245 0.01 -0.00959211 -4.97098e-05 -2.47381e-05 1.85847
0.25 0.01 -0.00949859 -4.65446e-05 -2.44979e-05 1.84021
0.255 0.01 -0.00941076 -4.36801e-05 -2.42728e-05 1.82303
0.26 0.01 -0.00932807 -4.10923e-05 -2.40612e-05 1.80683
0.265 0.01 -0.00925002 -3.87596e-05 -2.3862e-05 1.7915
0.27 0.01 -0.00917615 -3.66624e-05 -2.36738e-05 1.77696
0.275 0.01 -0.00910604 -3.47828e-05 -2.34956e-05 1.76313
0.28 0.01 -0.00903929 -3.31046e-05 -2.33262e-05 1.74994
0.285 0.01 -0.00897554 -3.16131e-05 -2.31647e-05 1.73733
0.29 0.01 -0.00891445 -3.02948e-05 -2.30102e-05 1.72522
0.295 0.01 -0.00885571 -2.91371e-05 -2.2862e-05 1.71355
0.3 0.01 -0.00879903 -2.81287e-05 -2.27191e-05 1.70228
0.305 0.01 -0.00874413 -2.7259e-05 -2.25809e-05 1.69135
0.31 0.01 -0.00869076 -2.65182e-05 -2.24467e-05 1.68071
0.315 0.01 -0.0086387 -2.58973e-05 -2.2316e-05 1.67032
0.32 0.01 -0.00858772 -2.53878e-05 -2.2188e-05 1.66015
0.325 0.01 -0.00853761 -2.49818e-05 -2.20623e-05 1.65014
0.33 0.01 -0.0084882 -2.46721e-05 -2.19384e-05 1.64027
0.335 0.01 -0.0084393 -2.44516e-05 -2.18159e-05 1.6305
0.34 0.01 -0.00839076 -2.4314e-05 -2.16942e-05 1.6208
0.345 0.01 -0.00834243 -2.42532e-05 -2.1573e-05 1.61115
0.35 0.01 -0.00829416 -2.42633e-05 -2.14519e-05 1.60151
0.355 0.01 -0.00824582 -2.4339e-05 -2.13306e-05 1.59187
0.36 0.01 -0.00819731 -2.44751e-05 -2.12088e-05 1.5822
0.365 0.01 -0.0081485 -2.46668e-05 -2.10862e-05 1.57247
0.37 0.01 -0.00809931 -2.49093e-05 -2.09624e-05 1.56269
0.375 0.01 -0.00804963 -2.51984e-05 -2.08374e-05 1.55281
0.38 0.01 -0.00799939 -2.55298e-05 -2.07108e-05 1.54283
0.385 0.01 -0.0079485 -2.58995e-05 -2.05824e-05 1.53274
0.39 0.01 -0.00789691 -2.63038e-05 -2.04521e-05 1.52252
0.395 0.01 -0.00784454 -2.67389e-05 -2.03197e-05 1.51216
0.4 0.01 -0.00779135 -2.72015e-05 -2.0185e-05 1.50166
0.405 0.01 -0.00773728 -2.76882e-05 -2.0048e-05 1.49099
0.41 0.01 -0.0076823 -2.81959e-05 -1.99084e-05 1.48015
0.415 0.01 -0.00762636 -2.87216e-05 -1.97663e-05 1.46914
0.42 0.01 -0.00756944 -2.92623e-05 -1.96215e-05 1.45795
0.425 0.01 -0.00751151 -2.98154e-05 -1.9474e-05 1.44658
0.43 0.01 -0.00745255 -3.03783e-05 -1.93237e-05 1.43502
0.435 0.01 -0.00739254 -3.09484e-05 -1.91706e-05 1.42327
0.44 0.01 -0.00733147 -3.15235e-05 -1.90145e-05 1.41132
0.445 0.01 -0.00726934 -3.21012e-05 -1.88556e-05 1.39918
0.45 0.01 -0.00720614 -3.26794e-05 -1.86939e-05 1.38684
0.455 0.01 -0.00714188 -3.32563e-05 -1.85292e-05 1.37431
0.46 0.01 -0.00707655 -3.38297e-05 -1.83616e-05 1.36159
0.465 0.01 -0.00701017 -3.4398e-05 -1.81912e-05 1.34867
0.47 0.01 -0.00694274 -3.49595e-05 -1.8018e-05 1.33556
0.475 0.01 -0.00687429 -3.55127e-05 -1.78419e-05 1.32226
0.48 0.01 -0.00680482 -3.60559e-05 -1.76632e-05 1.30878
0.485 0.01 -0.00673436 -3.6588e-05 -1.74817e-05 1.29511
0.49 0.01 -0.00666293 -3.71076e-05 -1.72976e-05 1.28127
0.495 0.01 -0.00659056 -3.76135e-05 -1.71109e-05 1.26726
0.5 0.01 -0.00651726 -3.81047e-05 -1.69218e-05 1.25308
0.505 0.01 -0.00644308 -3.85803e-05 -1.67302e-05 1.23873
0.51 0.01 -0.00636803 -3.90392e-05 -1.65363e-05 1.22423
0.515 0.01 -0.00629216 -3.94809e-05 -1.63401e-05 1.20958
0.52 0.01 -0.00621549 -3.99044e-05 -1.61418e-05 1.19478
0.525 0.01 -0.00613806 -4.03093e-05 -1.59414e-05 1.17984
0.53 0.01 -0.0060599 -4.06949e-05 -1.5739e-05 1.16477
0.535 0.01 -0.00598105 -4.10609e-05 -1.55347e-05 1.14958
0.54 0.01 -0.00590155 -4.14068e-05 -1.53287e-05 1.13427
0.545 0.01 -0.00582143 -4.17324e-05 -1.5121e-05 1.11884
0.55 0.01 -0.00574074 -4.20374e-05 -1.49117e-05 1.10332
0.555 0.01 -0.00565951 -4.23217e-05 -1.47009e-05 1.08769
0.56 0.01 -0.00557778 -4.25851e-05 -1.44887e-05 1.07197
0.565 0.01 -0.00549558 -4.28277e-05 -1.42753e-05 1.05617
0.57 0.01 -0.00541297 -4.30494e-05 -1.40607e-05 1.0403
0.575 0.01 -0.00532997 -4.32505e-05 -1.38451e-05 1.02435
0.58 0.01 -0.00524662 -4.34309e-05 -1.36285e-05 1.00835
0.585 0.01 -0.00516297 -4.35909e-05 -1.3411e-05 0.992286
0.59 0.01 -0.00507905 -4.37308e-05 -1.31928e-05 0.976178
0.595 0.01 -0.0049949 -4.38508e-05 -1.2974e-05 0.960029
0.6 0.01 -0.00491055 -4.39512e-05 -1.27546e-05 0.943846
0.605 0.01 -0.00482604 -4.40325e-05 -1.25347e-05 0.927635
0.61 0.01 -0.00474141 -4.40949e-05 -1.23145e-05 0.911404
0.615 0.01 -0.00465669 -4.4139e-05 -1.2094e-05 0.895159
0.62 0.01 -0.00457191 -4.41651e-05 -1.18733e-05 0.878905
0.625 0.01 -0.00448712 -4.41738e-05 -1.16526e-05 0.862649
0.63 0.01 -0.00440233 -4.41655e-05 -1.14318e-05 0.846397
0.635 0.01 -0.00431758 -4.41408e-05 -1.12111e-05 0.830155
0.64 0.01 -0.0042329 -4.41001e-05 -1.09906e-05 0.813928
0.645 0.01 -0.00414832 -4.4044e-05 -1.07703e-05 0.797722
0.65 0.01 -0.00406387 -4.39731e-05 -1.05504e-05 0.781542
0.655 0.01 -0.00397957 -4.38878e-05 -1.03308e-05 0.765392
0.66 0.01 -0.00389546 -4.37887e-05 -1.01117e-05 0.749278
0.665 0.01 -0.00381155 -4.36763e-05 -9.89308e-06 0.733205
0.67 0.01 -0.00372787 -4.35511e-05 -9.67508e-06 0.717176
0.675 0.01 -0.00364445 -4.34137e-05 -9.45774e-06 0.701197
0.68 0.01 -0.00356131 -4.32646e-05 -9.24111e-06 0.685271
0.685 0.01 -0.00347846 -4.31042e-05 -9.02525e-06 0.669402
0.69 0.01 -0.00339593 -4.29329e-05 -8.81023e-06 0.653595
0.695 0.01 -0.00331374 -4.27513e-05 -8.59608e-06 0.637853
0.7 0.01 -0.00323191 -4.25597e-05 -8.38286e-06 0.622179
0.705 0.01 -0.00315045 -4.23585e-05 -8.17062e-06 0.606578
0.71 0.01 -0.00306939 -4.2148e-05 -7.95941e-06 0.591051
0.715 0.01 -0.00298874 -4.19286e-05 -7.74928e-06 0.575603
0.72 0.01 -0.00290852 -4.17005e-05 -7.54025e-06 0.560237
0.725 0.01 -0.00282874 -4.1464e-05 -7.33239e-06 0.544955
0.73 0.01 -0.00274941 -4.12192e-05 -7.12573e-06 0.529761
0.735 0.01 -0.00267057 -4.09662e-05 -6.92032e-06 0.514658
0.74 0.01 -0.00259221 -4.07053e-05 -6.71618e-06 0.499648
0.745 0.01 -0.00251436 -4.04364e-05 -6.51337e-06 0.484735
0.75 0.01 -0.00243703 -4.01595e-05 -6.31192e-06 0.469921
0.755 0.01 -0.00236024 -3.98745e-05 -6.11187e-06 0.455209
0.76 0.01 -0.002284 -3.95813e-05 -5.91326e-06 0.440602
0.765 0.01 -0.00220833 -3.92798e-05 -5.71614e-06 0.426103
0.77 0.01 -0.00213324 -3.89697e-05 -5.52055e-06 0.411716
0.775 0.01 -0.00205875 -3.86506e-05 -5.32652e-06 0.397444
0.78 0.01 -0.00198487 -3.83223e-05 -5.13411e-06 0.38329
0.785 0.01 -0.00191164 -3.79842e-05 -4.94337e-06 0.369257
0.79 0.01 -0.00183906 -3.76359e-05 -4.75434e-06 0.35535
0.795 0.01 -0.00176715 -3.72768e-05 -4.56707e-06 0.341572
0.8 0.01 -0.00169595 -3.69061e-05 -4.38163e-06 0.327927
0.805 0.01 -0.00162546 -3.65233e-05 -4.19806e-06 0.31442
0.81 0.01 -0.00155572 -3.61273e-05 -4.01644e-06 0.301056
0.815 0.01 -0.00148675 -3.57175e-05 -3.83684e-06 0.28784
0.82 0.01 -0.00141858 -3.52927e-05 -3.65931e-06 0.274777
0.825 0.01 -0.00135124 -3.48519e-05 -3.48395e-06 0.261873
0.83 0.01 -0.00128476 -3.4394e-05 -3.31083e-06 0.249134
0.835 0.01 -0.00121918 -3.39177e-05 -3.14004e-06 0.236567
0.84 0.01 -0.00115453 -3.34215e-05 -2.97169e-06 0.224179
0.845 0.01 -0.00109085 -3.29042e-05 -2.80586e-06 0.211977
0.85 0.01 -0.00102818 -3.2364e-05 -2.64267e-06 0.199971
0.855 0.01 -0.000966576 -3.17994e-05 -2.48224e-06 0.188168
0.86 0.01 -0.000906079 -3.12084e-05 -2.3247e-06 0.176578
0.865 0.01 -0.000846744 -3.05892e-05 -2.17017e-06 0.165211
0.87 0.01 -0.000788626 -2.99397e-05 -2.01882e-06 0.154079
0.875 0.01 -0.000731787 -2.92576e-05 -1.87079e-06 0.143192
0.88 0.01 -0.00067629 -2.85405e-05 -1.72626e-06 0.132563
0.885 0.01 -0.000622205 -2.77859e-05 -1.5854e-06 0.122206
0.89 0.01 -0.000569607 -2.69909e-05 -1.4484e-06 0.112134
0.895 0.01 -0.000518575 -2.61526e-05 -1.31549e-06 0.102363
0.9 0.01 -0.000469194 -2.52678e-05 -1.18688e-06 0.0929089
0.905 0.01 -0.000421555 -2.43331e-05 -1.06282e-06 0.0837888
0.91 0.01 -0.000375755 -2.33447e-05 -9.43556e-07 0.0750212
0.915 0.01 -0.0003319 -2.22989e-05 -8.29373e-07 0.0666255
0.92 0.01 -0.000290099 -2.11913e-05 -7.20567e-07 0.0586223
0.925 0.01 -0.000250471 -2.00177e-05 -6.17459e-07 0.0510335
0.93 0.01 -0.000213142 -1.87733e-05 -5.2039e-07 0.0438819
0.935 0.01 -0.000178244 -1.74535e-05 -4.29724e-07 0.0371916
0.94 0.01 -0.000145918 -1.60536e-05 -3.45852e-07 0.0309872
0.945 0.01 -0.000116309 -1.45692e-05 -2.69186e-07 0.0252941
0.95 0.01 -8.95669e-05 -1.29966e-05 -2.00158e-07 0.0201377
0.955 0.01 -6.58452e-05 -1.13335e-05 -1.39217e-07 0.0155425
0.96 0.01 -4.52929e-05 -9.58002e-06 -8.68204e-08 0.0115311
0.965 0.01 -2.8049e-05 -7.74114e-06 -4.34144e-08 0.00812235
0.97 0.01 -1.42299e-05 -5.82984e-06 -9.40686e-09 0.00532798
0.975 0.01 -3.90932e-06 -3.87377e-06 1.48858e-08 0.0031484
0.98 0.01 2.91461e-06 -1.9272e-06 2.93323e-08 0.00156551
0.985 0.01 6.37263e-06 -9.33551e-08 3.41588e-08 0.000532366
0.99 0.01 6.81127e-06 1.43465e-06 3.02665e-08 -4.07539e-05
0.995 0.01 4.92965e-06 2.30919e-06 1.98125e-08 -0.000299531
1 0.01 1.97876e-06 1.98125e-06 7.17458e-09 -0.000436086
0 0.015 0 0 -0.00158301 0
0.005 0.015 0 0 0 -256.059
0.01 0.015 -0.152583 0.184387 -0.00179926 -79.372
0.015 0.015 -0.20553 -0.0243847 -0.00184387 -16.662
0.02 0.015 -0.203568 -0.0578016 -0.00155541 2.42956
0.025 0.015 -0.183634 -0.0521293 -0.00126585 8.14147
0.03 0.015 -0.160691 -0.0408399 -0.00103412 9.52836
0.035 0.015 -0.139694 -0.0311049 -0.000857456 9.44531
0.04 0.015 -0.121819 -0.0237933 -0.000723068 8.87708
0.045 0.015 -0.10697 -0.018468 -0.000619523 8.18388
0.05 0.015 -0.094701 -0.0145797 -0.000538388 7.49916
0.055 0.015 -0.0845374 -0.0117008 -0.000473726 6.86943
0.06 0.015 -0.0760654 -0.00953181 -0.00042138 6.30695
0.065 0.015 -0.0689505 -0.00786887 -0.000378407 5.81066
0.07 0.015 -0.0629288 -0.00657285 -0.000342691 5.37471
0.075 0.015 -0.0577937 -0.00554759 -0.000312678 4.99195
0.08 0.015 -0.0533833 -0.00472554 -0.000287214 4.6554
0.085 0.015 -0.0495699 -0.00405837 -0.000265423 4.3587
0.09 0.015 -0.0462524 -0.00351094 -0.00024663 4.09635
0.095 0.015 -0.04335 -0.00305728 -0.000230313 3.86361
0.1 0.015 -0.0407976 -0.00267794 -0.000216057 3.65645
0.105 0.015 -0.0385422 -0.00235811 -0.000203533 3.47146
0.11 0.015 -0.0365407 -0.00208644 -0.000192476 3.30575
0.115 0.015 -0.0347573 -0.00185408 -0.000182668 3.15686
0.12 0.015 -0.0331625 -0.00165408 -0.000173934 3.02271
0.125 0.015 -0.0317316 -0.00148093 -0.000166127 2.90152
0.13 0.015 -0.0304437 -0.00133023 -0.000159125 2.79175
0.135 0.015 -0.0292814 -0.00119842 -0.000152825 2.69211
0.14 0.015 -0.0282296 -0.00108261 -0.000147141 2.60145
0.145 0.015 -0.0272756 -0.000980431 -0.000141999 2.51879
0.15 0.015 -0.0264083 -0.000889936 -0.000137336 2.44329
0.155 0.015 -0.0256182 -0.000809507 -0.000133099 2.3742
0.16 0.015 -0.0248972 -0.000737795 -0.000129241 2.31086
0.165 0.015 -0.0242379 -0.000673668 -0.000125721 2.2527
0.17 0.015 -0.0236341 -0.00061617 -0.000122504 2.19922
0.175 0.015 -0.0230802 -0.000564491 -0.00011956 2.14996
0.18 0.015 -0.0225714 -0.000517942 -0.00011686 2.10452
0.185 0.015 -0.0221032 -0.000475933 -0.00011438 2.06255
0.19 0.015 -0.0216718 -0.000437954 -0.0001121 2.02374
0.195 0.015 -0.0212739 -0.00040357 -0.000110001 1.98778
0.2 0.015 -0.0209062 -0.000372399 -0.000108065 1.95444
0.205 0.015 -0.020566 -0.000344111 -0.000106277 1.92346
0.21 0.015 -0.0202508 -0.000318418 -0.000104624 1.89465
0.215 0.015 -0.0199584 -0.000295067 -0.000103093 1.86782
0.22 0.015 -0.0196867 -0.000273836 -0.000101674 1.84279
0.225 0.015 -0.0194338 -0.000254529 -0.000100355 1.8194
0.23 0.015 -0.0191982 -0.000236971 -9.91289e-05 1.7975
0.235 0.015 -0.0189781 -0.000221009 -9.79861e-05 1.77698
0.24 0.015 -0.0187723 -0.000206505 -9.69193e-05 1.7577
0.245 0.015 -0.0185793 -0.000193338 -9.59216e-05 1.73955
0.25 0.015 -0.0183982 -0.000181395 -9.49865e-05 1.72244
0.255 0.015 -0.0182276 -0.00017058 -9.41082e-05 1.70626
0.26 0.015 -0.0180667 -0.000160803 -9.32813e-05 1.69093
0.265 0.015 -0.0179146 -0.000151982 -9.25008e-05 1.67638
0.27 0.015 -0.0177702 -0.000144047 -9.17622e-05 1.66252
0.275 0.015 -0.017633 -0.000136929 -9.10611e-05 1.64928
0.28 0.015 -0.017502 -0.000130569 -9.03936e-05 1.63661
0.285 0.015 -0.0173768 -0.000124911 -8.97562e-05 1.62444
0.29 0.015 -0.0172565 -0.000119904 -8.91453e-05 1.61271
0.295 0.015 -0.0171406 -0.000115503 -8.85579e-05 1.60139
0.3 0.015 -0.0170287 -0.000111664 -8.79911e-05 1.59041
0.305 0.015 -0.0169201 -0.000108348 -8.74422e-05 1.57973
0.31 0.015 -0.0168144 -0.000105517 -8.69085e-05 1.56932
0.315 0.015 -0.0167112 -0.000103138 -8.63879e-05 1.55913
0.32 0.015 -0.01661 -0.000101179 -8.58781e-05 1.54913
0.325 0.015 -0.0165105 -9.96105e-05 -8.53771e-05 1.53928
0.33 0.015 -0.0164123 -9.84044e-05 -8.4883e-05 1.52956
0.335 0.015 -0.0163152 -9.7535e-05 -8.43941e-05 1.51993
0.34 0.015 -0.0162187 -9.69777e-05 -8.39087e-05 1.51037
0.345 0.015 -0.0161226 -9.67096e-05 -8.34253e-05 1.50086
0.35 0.015 -0.0160267 -9.67089e-05 -8.29426e-05 1.49136
0.355 0.015 -0.0159307 -9.69552e-05 -8.24593e-05 1.48187
0.36 0.015 -0.0158343 -9.74289e-05 -8.19742e-05 1.47236
0.365 0.015 -0.0157375 -9.81118e-05 -8.14862e-05 1.4628
0.37 0.015 -0.0156399 -9.89863e-05 -8.09942e-05 1.4532
0.375 0.015 -0.0155415 -0.000100036 -8.04975e-05 1.44353
0.38 0.015 -0.015442 -0.000101244 -7.9995e-05 1.43377
0.385 0.015 -0.0153413 -0.000102597 -7.94862e-05 1.42392
0.39 0.015 -0.0152394 -0.00010408 -7.89702e-05 1.41397
0.395 0.015 -0.015136 -0.000105678 -7.84466e-05 1.40389
0.4 0.015 -0.0150311 -0.00010738 -7.79147e-05 1.3937
0.405 0.015 -0.0149246 -0.000109172 -7.7374e-05 1.38337
0.41 0.015 -0.0148164 -0.000111043 -7.68242e-05 1.3729
0.415 0.015 -0.0147065 -0.000112981 -7.62648e-05 1.36229
0.42 0.015 -0.0145947 -0.000114976 -7.56956e-05 1.35152
0.425 0.015 -0.0144811 -0.000117017 -7.51163e-05 1.3406
0.43 0.015 -0.0143655 -0.000119095 -7.45267e-05 1.32953
0.435 0.015 -0.0142481 -0.000121199 -7.39266e-05 1.31829
0.44 0.015 -0.0141287 -0.000123322 -7.3316e-05 1.3069
0.445 0.015 -0.0140073 -0.000125456 -7.26947e-05 1.29533
0.45 0.015 -0.0138839 -0.000127591 -7.20627e-05 1.28361
0.455 0.015 -0.0137586 -0.00012972 -7.142e-05 1.27172
0.46 0.015 -0.0136313 -0.000131837 -7.07667e-05 1.25967
0.465 0.015 -0.0135021 -0.000133935 -7.01029e-05 1.24746
0.47 0.015 -0.013371 -0.000136007 -6.94287e-05 1.23509
0.475 0.015 -0.0132379 -0.000138047 -6.87441e-05 1.22256
0.48 0.015 -0.013103 -0.000140051 -6.80494e-05 1.20987
0.485 0.015 -0.0129663 -0.000142013 -6.73448e-05 1.19704
0.49 0.015 -0.0128277 -0.000143928 -6.66305e-05 1.18406
0.495 0.015 -0.0126875 -0.000145792 -6.59068e-05 1.17093
0.5 0.015 -0.0125455 -0.000147602 -6.51739e-05 1.15767
0.505 0.015 -0.0124019 -0.000149352 -6.4432e-05 1.14427
0.51 0.015 -0.0122568 -0.000151041 -6.36815e-05 1.13074
0.515 0.015 -0.0121101 -0.000152665 -6.29228e-05 1.11708
0.52 0.015 -0.0119619 -0.000154222 -6.21561e-05 1.1033
0.525 0.015 -0.0118124 -0.000155708 -6.13818e-05 1.08941
0.53 0.015 -0.0116615 -0.000157124 -6.06002e-05 1.07541
0.535 0.015 -0.0115094 -0.000158465 -5.98117e-05 1.06131
0.54 0.015 -0.0113561 -0.000159732 -5.90167e-05 1.04711
0.545 0.015 -0.0112016 -0.000160924 -5.82155e-05 1.03282
0.55 0.015 -0.0110461 -0.000162038 -5.74085e-05 1.01845
0.555 0.015 -0.0108896 -0.000163076 -5.65962e-05 1.00399
0.56 0.015 -0.0107322 -0.000164035 -5.57789e-05 0.989465
0.565 0.015 -0.010574 -0.000164918 -5.49569e-05 0.97487
0.57 0.015 -0.010415 -0.000165722 -5.41307e-05 0.960215
0.575 0.015 -0.0102553 -0.000166449 -5.33007e-05 0.945505
0.58 0.015 -0.010095 -0.0001671 -5.24673e-05 0.930747
0.585 0.015 -0.00993413 -0.000167675 -5.16307e-05 0.915946
0.59 0.015 -0.00977279 -0.000168175 -5.07915e-05 0.901109
0.595 0.015 -0.00961105 -0.0001686 -4.995e-05 0.886241
0.6 0.015 -0.00944896 -0.000168953 -4.91065e-05 0.871348
0.605 0.015 -0.0092866 -0.000169235 -4.82614e-05 0.856436
0.61 0.015 -0.00912403 -0.000169446 -4.7415e-05 0.841511
0.615 0.015 -0.00896131 -0.000169589 -4.65678e-05 0.826577
0.62 0.015 -0.00879851 -0.000169666 -4.572e-05 0.811641
0.625 0.015 -0.00863569 -0.000169677 -4.4872e-05 0.796707
0.63 0.015 -0.00847291 -0.000169625 -4.40241e-05 0.78178
0.635 0.015 -0.00831023 -0.000169512 -4.31766e-05 0.766866
0.64 0.015 -0.0081477 -0.00016934 -4.23298e-05 0.751969
0.645 0.015 -0.00798538 -0.00016911 -4.1484e-05 0.737094
0.65 0.015 -0.00782331 -0.000168825 -4.06394e-05 0.722245
0.655 0.015 -0.00766156 -0.000168486 -3.97965e-05 0.707426
0.66 0.015 -0.00750017 -0.000168096 -3.89553e-05 0.692642
0.665 0.015 -0.00733918 -0.000167657 -3.81162e-05 0.677897
0.67 0.015 -0.00717864 -0.00016717 -3.72794e-05 0.663195
0.675 0.015 -0.0070186 -0.000166637 -3.64452e-05 0.648539
0.68 0.015 -0.00685909 -0.00016606 -3.56137e-05 0.633933
0.685 0.015 -0.00670016 -0.000165441 -3.47852e-05 0.619381
0.69 0.015 -0.00654184 -0.000164781 -3.39599e-05 0.604885
0.695 0.015 -0.00638418 -0.000164083 -3.3138e-05 0.590449
0.7 0.015 -0.0062272 -0.000163347 -3.23197e-05 0.576076
0.705 0.015 -0.00607095 -0.000162575 -3.15051e-05 0.56177
0.71 0.015 -0.00591545 -0.000161769 -3.06944e-05 0.547532
0.715 0.015 -0.00576074 -0.000160928 -2.98879e-05 0.533366
0.72 0.015 -0.00560685 -0.000160055 -2.90857e-05 0.519275
0.725 0.015 -0.0054538 -0.00015915 -2.82878e-05 0.505261
0.73 0.015 -0.00530164 -0.000158214 -2.74946e-05 0.491327
0.735 0.015 -0.00515038 -0.000157247 -2.67061e-05 0.477475
0.74 0.015 -0.00500007 -0.00015625 -2.59226e-05 0.463709
0.745 0.015 -0.00485071 -0.000155222 -2.5144e-05 0.450031
0.75 0.015 -0.00470236 -0.000154163 -2.43707e-05 0.436443
0.755 0.015 -0.00455502 -0.000153074 -2.36028e-05 0.422949
0.76 0.015 -0.00440874 -0.000151953 -2.28404e-05 0.40955
0.765 0.015 -0.00426355 -0.0001508 -2.20836e-05 0.396251
0.77 0.015 -0.00411947 -0.000149614 -2.13327e-05 0.383052
0.775 0.015 -0.00397654 -0.000148394 -2.05878e-05 0.369959
0.78 0.015 -0.00383479 -0.000147138 -1.9849e-05 0.356974
0.785 0.015 -0.00369426 -0.000145844 -1.91167e-05 0.344099
0.79 0.015 -0.00355499 -0.000144511 -1.83908e-05 0.33134