Title=" Lid Driven Flow"
VARIABLES="X","Y","U","V","psi","xi"
ZONE T= "BOX", I= 257, J=257, F=POINT
0 0 0 0 -306.126 0
0.00390625 0 0 0 0 0
0.0078125 0 0 0 0 0
0.0117188 0 0 0 0 -416.842
0.015625 0 0 0 0 -326.387
0.0195313 0 0 0 0 -259.796
0.0234375 0 0 0 0 -212.819
0.0273438 0 0 0 0 -179.533
0.03125 0 0 0 0 -155.459
0.0351563 0 0 0 0 -137.581
0.0390625 0 0 0 0 -123.929
0.0429688 0 0 0 0 -113.22
0.046875 0 0 0 0 -104.611
0.0507813 0 0 0 0 -97.5353
0.0546875 0 0 0 0 -91.6095
0.0585938 0 0 0 0 -86.5644
0.0625 0 0 0 0 -82.2085
0.0664063 0 0 0 0 -78.4022
0.0703125 0 0 0 0 -75.0417
0.0742188 0 0 0 0 -72.048
0.078125 0 0 0 0 -69.3604
0.0820313 0 0 0 0 -66.9311
0.0859375 0 0 0 0 -64.7221
0.0898438 0 0 0 0 -62.7027
0.09375 0 0 0 0 -60.8477
0.0976563 0 0 0 0 -59.1365
0.101563 0 0 0 0 -57.5518
0.105469 0 0 0 0 -56.0792
0.109375 0 0 0 0 -54.7062
0.113281 0 0 0 0 -53.4224
0.117188 0 0 0 0 -52.2188
0.121094 0 0 0 0 -51.0875
0.125 0 0 0 0 -50.0217
0.128906 0 0 0 0 -49.0156
0.132813 0 0 0 0 -48.0638
0.136719 0 0 0 0 -47.1617
0.140625 0 0 0 0 -46.3053
0.144531 0 0 0 0 -45.4909
0.148438 0 0 0 0 -44.7152
0.152344 0 0 0 0 -43.9754
0.15625 0 0 0 0 -43.2689
0.160156 0 0 0 0 -42.5931
0.164063 0 0 0 0 -41.9461
0.167969 0 0 0 0 -41.3259
0.171875 0 0 0 0 -40.7307
0.175781 0 0 0 0 -40.1589
0.179688 0 0 0 0 -39.609
0.183594 0 0 0 0 -39.0797
0.1875 0 0 0 0 -38.5698
0.191406 0 0 0 0 -38.0781
0.195313 0 0 0 0 -37.6035
0.199219 0 0 0 0 -37.1451
0.203125 0 0 0 0 -36.7021
0.207031 0 0 0 0 -36.2735
0.210938 0 0 0 0 -35.8586
0.214844 0 0 0 0 -35.4568
0.21875 0 0 0 0 -35.0673
0.222656 0 0 0 0 -34.6894
0.226563 0 0 0 0 -34.3228
0.230469 0 0 0 0 -33.9667
0.234375 0 0 0 0 -33.6207
0.238281 0 0 0 0 -33.2844
0.242188 0 0 0 0 -32.9572
0.246094 0 0 0 0 -32.6389
0.25 0 0 0 0 -32.3288
0.253906 0 0 0 0 -32.0268
0.257813 0 0 0 0 -31.7325
0.261719 0 0 0 0 -31.4455
0.265625 0 0 0 0 -31.1655
0.269531 0 0 0 0 -30.8923
0.273438 0 0 0 0 -30.6255
0.277344 0 0 0 0 -30.3649
0.28125 0 0 0 0 -30.1103
0.285156 0 0 0 0 -29.8613
0.289063 0 0 0 0 -29.6179
0.292969 0 0 0 0 -29.3798
0.296875 0 0 0 0 -29.1467
0.300781 0 0 0 0 -28.9185
0.304688 0 0 0 0 -28.695
0.308594 0 0 0 0 -28.476
0.3125 0 0 0 0 -28.2614
0.316406 0 0 0 0 -28.051
0.320313 0 0 0 0 -27.8446
0.324219 0 0 0 0 -27.6422
0.328125 0 0 0 0 -27.4434
0.332031 0 0 0 0 -27.2483
0.335938 0 0 0 0 -27.0567
0.339844 0 0 0 0 -26.8684
0.34375 0 0 0 0 -26.6834
0.347656 0 0 0 0 -26.5015
0.351563 0 0 0 0 -26.3226
0.355469 0 0 0 0 -26.1466
0.359375 0 0 0 0 -25.9734
0.363281 0 0 0 0 -25.8029
0.367188 0 0 0 0 -25.635
0.371094 0 0 0 0 -25.4696
0.375 0 0 0 0 -25.3066
0.378906 0 0 0 0 -25.1458
0.382813 0 0 0 0 -24.9873
0.386719 0 0 0 0 -24.831
0.390625 0 0 0 0 -24.6766
0.394531 0 0 0 0 -24.5243
0.398438 0 0 0 0 -24.3738
0.402344 0 0 0 0 -24.2251
0.40625 0 0 0 0 -24.0781
0.410156 0 0 0 0 -23.9327
0.414063 0 0 0 0 -23.789
0.417969 0 0 0 0 -23.6466
0.421875 0 0 0 0 -23.5057
0.425781 0 0 0 0 -23.3662
0.429688 0 0 0 0 -23.2279
0.433594 0 0 0 0 -23.0907
0.4375 0 0 0 0 -22.9547
0.441406 0 0 0 0 -22.8197
0.445313 0 0 0 0 -22.6857
0.449219 0 0 0 0 -22.5526
0.453125 0 0 0 0 -22.4203
0.457031 0 0 0 0 -22.2888
0.460938 0 0 0 0 -22.158
0.464844 0 0 0 0 -22.0278
0.46875 0 0 0 0 -21.8981
0.472656 0 0 0 0 -21.7689
0.476563 0 0 0 0 -21.6402
0.480469 0 0 0 0 -21.5118
0.484375 0 0 0 0 -21.3836
0.488281 0 0 0 0 -21.2558
0.492188 0 0 0 0 -21.1281
0.496094 0 0 0 0 -21.0004
0.5 0 0 0 0 -20.8729
0.503906 0 0 0 0 -20.7453
0.507813 0 0 0 0 -20.6177
0.511719 0 0 0 0 -20.49
0.515625 0 0 0 0 -20.3621
0.519531 0 0 0 0 -20.234
0.523438 0 0 0 0 -20.1057
0.527344 0 0 0 0 -19.977
0.53125 0 0 0 0 -19.8481
0.535156 0 0 0 0 -19.7188
0.539063 0 0 0 0 -19.5892
0.542969 0 0 0 0 -19.4591
0.546875 0 0 0 0 -19.3287
0.550781 0 0 0 0 -19.1978
0.554688 0 0 0 0 -19.0665
0.558594 0 0 0 0 -18.9348
0.5625 0 0 0 0 -18.8028
0.566406 0 0 0 0 -18.6703
0.570313 0 0 0 0 -18.5376
0.574219 0 0 0 0 -18.4045
0.578125 0 0 0 0 -18.2711
0.582031 0 0 0 0 -18.1376
0.585938 0 0 0 0 -18.004
0.589844 0 0 0 0 -17.8702
0.59375 0 0 0 0 -17.7366
0.597656 0 0 0 0 -17.603
0.601563 0 0 0 0 -17.4697
0.605469 0 0 0 0 -17.3368
0.609375 0 0 0 0 -17.2043
0.613281 0 0 0 0 -17.0725
0.617188 0 0 0 0 -16.9414
0.621094 0 0 0 0 -16.8114
0.625 0 0 0 0 -16.6824
0.628906 0 0 0 0 -16.5547
0.632813 0 0 0 0 -16.4285
0.636719 0 0 0 0 -16.304
0.640625 0 0 0 0 -16.1814
0.644531 0 0 0 0 -16.061
0.648438 0 0 0 0 -15.9428
0.652344 0 0 0 0 -15.8273
0.65625 0 0 0 0 -15.7146
0.660156 0 0 0 0 -15.6049
0.664063 0 0 0 0 -15.4985
0.667969 0 0 0 0 -15.3956
0.671875 0 0 0 0 -15.2966
0.675781 0 0 0 0 -15.2015
0.679688 0 0 0 0 -15.1108
0.683594 0 0 0 0 -15.0246
0.6875 0 0 0 0 -14.9431
0.691406 0 0 0 0 -14.8667
0.695313 0 0 0 0 -14.7954
0.699219 0 0 0 0 -14.7297
0.703125 0 0 0 0 -14.6696
0.707031 0 0 0 0 -14.6154
0.710938 0 0 0 0 -14.5672
0.714844 0 0 0 0 -14.5254
0.71875 0 0 0 0 -14.49
0.722656 0 0 0 0 -14.4612
0.726563 0 0 0 0 -14.4392
0.730469 0 0 0 0 -14.4241
0.734375 0 0 0 0 -14.416
0.738281 0 0 0 0 -14.4152
0.742188 0 0 0 0 -14.4217
0.746094 0 0 0 0 -14.4356
0.75 0 0 0 0 -14.457
0.753906 0 0 0 0 -14.486
0.757813 0 0 0 0 -14.5228
0.761719 0 0 0 0 -14.5674
0.765625 0 0 0 0 -14.6199
0.769531 0 0 0 0 -14.6805
0.773438 0 0 0 0 -14.7491
0.777344 0 0 0 0 -14.8261
0.78125 0 0 0 0 -14.9114
0.785156 0 0 0 0 -15.0053
0.789063 0 0 0 0 -15.1079
0.792969 0 0 0 0 -15.2195
0.796875 0 0 0 0 -15.3403
0.800781 0 0 0 0 -15.4706
0.804688 0 0 0 0 -15.6108
0.808594 0 0 0 0 -15.7612
0.8125 0 0 0 0 -15.9223
0.816406 0 0 0 0 -16.0947
0.820313 0 0 0 0 -16.2789
0.824219 0 0 0 0 -16.4757
0.828125 0 0 0 0 -16.6859
0.832031 0 0 0 0 -16.9103
0.835938 0 0 0 0 -17.1501
0.839844 0 0 0 0 -17.4063
0.84375 0 0 0 0 -17.6804
0.847656 0 0 0 0 -17.9736
0.851563 0 0 0 0 -18.2877
0.855469 0 0 0 0 -18.6245
0.859375 0 0 0 0 -18.986
0.863281 0 0 0 0 -19.3743
0.867188 0 0 0 0 -19.7919
0.871094 0 0 0 0 -20.2415
0.875 0 0 0 0 -20.726
0.878906 0 0 0 0 -21.2485
0.882813 0 0 0 0 -21.8126
0.886719 0 0 0 0 -22.422
0.890625 0 0 0 0 -23.0809
0.894531 0 0 0 0 -23.7936
0.898438 0 0 0 0 -24.5651
0.902344 0 0 0 0 -25.4006
0.90625 0 0 0 0 -26.3058
0.910156 0 0 0 0 -27.2871
0.914063 0 0 0 0 -28.3513
0.917969 0 0 0 0 -29.5059
0.921875 0 0 0 0 -30.7595
0.925781 0 0 0 0 -32.1215
0.929688 0 0 0 0 -33.6027
0.933594 0 0 0 0 -35.2156
0.9375 0 0 0 0 -36.9751
0.941406 0 0 0 0 -38.8986
0.945313 0 0 0 0 -41.0078
0.949219 0 0 0 0 -43.3298
0.953125 0 0 0 0 -45.899
0.957031 0 0 0 0 -48.7606
0.960938 0 0 0 0 -51.9752
0.964844 0 0 0 0 -55.6255
0.96875 0 0 0 0 -59.8282
0.972656 0 0 0 0 -64.7516
0.976563 0 0 0 0 -70.6478
0.980469 0 0 0 0 -77.909
0.984375 0 0 0 0 -87.1783
0.988281 0 0 0 0 -99.587
0.992188 0 0 0 0 -117.324
0.996094 0 0 0 0 -145.202
1 0 0 0 0 -195.757
0 0.00390625 0 0 0 0
0.00390625 0.00390625 0 0 0 0
0.0078125 0.00390625 0 0 0 -0.000290238
0.0117188 0.00390625 0 0 0 -0.000785809
0.015625 0.00390625 0 0 0 -0.00117756
0.0195313 0.00390625 0 0 0 -0.0012929
0.0234375 0.00390625 0 0 0 -0.00105043
0.0273438 0.00390625 0 0 0 -0.000420165
0.03125 0.00390625 0 0 0 0.000600162
0.0351563 0.00390625 0 0 0 0.00199805
0.0390625 0.00390625 0 0 0 0.00375334
0.0429688 0.00390625 0 0 0 0.00584208
0.046875 0.00390625 0 0 0 0.00823883
0.0507813 0.00390625 0 0 0 0.0109179
0.0546875 0.00390625 0 0 0 0.0138542
0.0585938 0.00390625 0 0 0 0.0170236
0.0625 0.00390625 0 0 0 0.0204033
0.0664063 0.00390625 0 0 0 0.0239716
0.0703125 0.00390625 0 0 0 0.0277087
0.0742188 0.00390625 0 0 0 0.0315958
0.078125 0.00390625 0 0 0 0.035616
0.0820313 0.00390625 0 0 0 0.0397533
0.0859375 0.00390625 0 0 0 0.0439935
0.0898438 0.00390625 0 0 0 0.0483233
0.09375 0.00390625 0 0 0 0.0527308
0.0976563 0.00390625 0 0 0 0.0572051
0.101563 0.00390625 0 0 0 0.0617365
0.105469 0.00390625 0 0 0 0.0663163
0.109375 0.00390625 0 0 0 0.0709364
0.113281 0.00390625 0 0 0 0.0755899
0.117188 0.00390625 0 0 0 0.0802705
0.121094 0.00390625 0 0 0 0.0849726
0.125 0.00390625 0 0 0 0.0896912
0.128906 0.00390625 0 0 0 0.094422
0.132813 0.00390625 0 0 0 0.0991612
0.136719 0.00390625 0 0 0 0.103905
0.140625 0.00390625 0 0 0 0.108652
0.144531 0.00390625 0 0 0 0.113397
0.148438 0.00390625 0 0 0 0.11814
0.152344 0.00390625 0 0 0 0.122879
0.15625 0.00390625 0 0 0 0.127611
0.160156 0.00390625 0 0 0 0.132335
0.164063 0.00390625 0 0 0 0.13705
0.167969 0.00390625 0 0 0 0.141755
0.171875 0.00390625 0 0 0 0.146449
0.175781 0.00390625 0 0 0 0.15113
0.179688 0.00390625 0 0 0 0.155799
0.183594 0.00390625 0 0 0 0.160455
0.1875 0.00390625 0 0 0 0.165096
0.191406 0.00390625 0 0 0 0.169723
0.195313 0.00390625 0 0 0 0.174335
0.199219 0.00390625 0 0 0 0.178932
0.203125 0.00390625 0 0 0 0.183512
0.207031 0.00390625 0 0 0 0.188076
0.210938 0.00390625 0 0 0 0.192623
0.214844 0.00390625 0 0 0 0.197153
0.21875 0.00390625 0 0 0 0.201665
0.222656 0.00390625 0 0 0 0.206159
0.226563 0.00390625 0 0 0 0.210634
0.230469 0.00390625 0 0 0 0.215091
0.234375 0.00390625 0 0 0 0.219527
0.238281 0.00390625 0 0 0 0.223944
0.242188 0.00390625 0 0 0 0.22834
0.246094 0.00390625 0 0 0 0.232714
0.25 0.00390625 0 0 0 0.237067
0.253906 0.00390625 0 0 0 0.241398
0.257813 0.00390625 0 0 0 0.245706
0.261719 0.00390625 0 0 0 0.249991
0.265625 0.00390625 0 0 0 0.254251
0.269531 0.00390625 0 0 0 0.258487
0.273438 0.00390625 0 0 0 0.262697
0.277344 0.00390625 0 0 0 0.266881
0.28125 0.00390625 0 0 0 0.271038
0.285156 0.00390625 0 0 0 0.275167
0.289063 0.00390625 0 0 0 0.279269
0.292969 0.00390625 0 0 0 0.283341
0.296875 0.00390625 0 0 0 0.287383
0.300781 0.00390625 0 0 0 0.291394
0.304688 0.00390625 0 0 0 0.295374
0.308594 0.00390625 0 0 0 0.299321
0.3125 0.00390625 0 0 0 0.303235
0.316406 0.00390625 0 0 0 0.307114
0.320313 0.00390625 0 0 0 0.310959
0.324219 0.00390625 0 0 0 0.314767
0.328125 0.00390625 0 0 0 0.318539
0.332031 0.00390625 0 0 0 0.322272
0.335938 0.00390625 0 0 0 0.325967
0.339844 0.00390625 0 0 0 0.329621
0.34375 0.00390625 0 0 0 0.333235
0.347656 0.00390625 0 0 0 0.336807
0.351563 0.00390625 0 0 0 0.340335
0.355469 0.00390625 0 0 0 0.34382
0.359375 0.00390625 0 0 0 0.347259
0.363281 0.00390625 0 0 0 0.350652
0.367188 0.00390625 0 0 0 0.353998
0.371094 0.00390625 0 0 0 0.357296
0.375 0.00390625 0 0 0 0.360543
0.378906 0.00390625 0 0 0 0.363741
0.382813 0.00390625 0 0 0 0.366886
0.386719 0.00390625 0 0 0 0.369978
0.390625 0.00390625 0 0 0 0.373016
0.394531 0.00390625 0 0 0 0.375999
0.398438 0.00390625 0 0 0 0.378925
0.402344 0.00390625 0 0 0 0.381793
0.40625 0.00390625 0 0 0 0.384603
0.410156 0.00390625 0 0 0 0.387352
0.414063 0.00390625 0 0 0 0.39004
0.417969 0.00390625 0 0 0 0.392665
0.421875 0.00390625 0 0 0 0.395226
0.425781 0.00390625 0 0 0 0.397722
0.429688 0.00390625 0 0 0 0.400152
0.433594 0.00390625 0 0 0 0.402515
0.4375 0.00390625 0 0 0 0.404808
0.441406 0.00390625 0 0 0 0.407032
0.445313 0.00390625 0 0 0 0.409184
0.449219 0.00390625 0 0 0 0.411264
0.453125 0.00390625 0 0 0 0.41327
0.457031 0.00390625 0 0 0 0.415201
0.460938 0.00390625 0 0 0 0.417056
0.464844 0.00390625 0 0 0 0.418833
0.46875 0.00390625 0 0 0 0.420532
0.472656 0.00390625 0 0 0 0.422151
0.476563 0.00390625 0 0 0 0.423689
0.480469 0.00390625 0 0 0 0.425145
0.484375 0.00390625 0 0 0 0.426517
0.488281 0.00390625 0 0 0 0.427805
0.492188 0.00390625 0 0 0 0.429008
0.496094 0.00390625 0 0 0 0.430123
0.5 0.00390625 0 0 0 0.431151
0.503906 0.00390625 0 0 0 0.43209
0.507813 0.00390625 0 0 0 0.432939
0.511719 0.00390625 0 0 0 0.433696
0.515625 0.00390625 0 0 0 0.434362
0.519531 0.00390625 0 0 0 0.434935
0.523438 0.00390625 0 0 0 0.435414
0.527344 0.00390625 0 0 0 0.435798
0.53125 0.00390625 0 0 0 0.436086
0.535156 0.00390625 0 0 0 0.436278
0.539063 0.00390625 0 0 0 0.436372
0.542969 0.00390625 0 0 0 0.436368
0.546875 0.00390625 0 0 0 0.436264
0.550781 0.00390625 0 0 0 0.436062
0.554688 0.00390625 0 0 0 0.435758
0.558594 0.00390625 0 0 0 0.435354
0.5625 0.00390625 0 0 0 0.434848
0.566406 0.00390625 0 0 0 0.434239
0.570313 0.00390625 0 0 0 0.433528
0.574219 0.00390625 0 0 0 0.432714
0.578125 0.00390625 0 0 0 0.431796
0.582031 0.00390625 0 0 0 0.430774
0.585938 0.00390625 0 0 0 0.429648
0.589844 0.00390625 0 0 0 0.428418
0.59375 0.00390625 0 0 0 0.427082
0.597656 0.00390625 0 0 0 0.425641
0.601563 0.00390625 0 0 0 0.424096
0.605469 0.00390625 0 0 0 0.422445
0.609375 0.00390625 0 0 0 0.420689
0.613281 0.00390625 0 0 0 0.418828
0.617188 0.00390625 0 0 0 0.416862
0.621094 0.00390625 0 0 0 0.414792
0.625 0.00390625 0 0 0 0.412616
0.628906 0.00390625 0 0 0 0.410336
0.632813 0.00390625 0 0 0 0.407953
0.636719 0.00390625 0 0 0 0.405466
0.640625 0.00390625 0 0 0 0.402875
0.644531 0.00390625 0 0 0 0.400182
0.648438 0.00390625 0 0 0 0.397387
0.652344 0.00390625 0 0 0 0.394491
0.65625 0.00390625 0 0 0 0.391494
0.660156 0.00390625 0 0 0 0.388397
0.664063 0.00390625 0 0 0 0.385201
0.667969 0.00390625 0 0 0 0.381906
0.671875 0.00390625 0 0 0 0.378514
0.675781 0.00390625 0 0 0 0.375026
0.679688 0.00390625 0 0 0 0.371442
0.683594 0.00390625 0 0 0 0.367764
0.6875 0.00390625 0 0 0 0.363993
0.691406 0.00390625 0 0 0 0.36013
0.695313 0.00390625 0 0 0 0.356177
0.699219 0.00390625 0 0 0 0.352134
0.703125 0.00390625 0 0 0 0.348002
0.707031 0.00390625 0 0 0 0.343785
0.710938 0.00390625 0 0 0 0.339481
0.714844 0.00390625 0 0 0 0.335094
0.71875 0.00390625 0 0 0 0.330625
0.722656 0.00390625 0 0 0 0.326075
0.726563 0.00390625 0 0 0 0.321446
0.730469 0.00390625 0 0 0 0.31674
0.734375 0.00390625 0 0 0 0.311957
0.738281 0.00390625 0 0 0 0.307101
0.742188 0.00390625 0 0 0 0.302172
0.746094 0.00390625 0 0 0 0.297173
0.75 0.00390625 0 0 0 0.292105
0.753906 0.00390625 0 0 0 0.286969
0.757813 0.00390625 0 0 0 0.281769
0.761719 0.00390625 0 0 0 0.276506
0.765625 0.00390625 0 0 0 0.271182
0.769531 0.00390625 0 0 0 0.265798
0.773438 0.00390625 0 0 0 0.260357
0.777344 0.00390625 0 0 0 0.254861
0.78125 0.00390625 0 0 0 0.249311
0.785156 0.00390625 0 0 0 0.243711
0.789063 0.00390625 0 0 0 0.238061
0.792969 0.00390625 0 0 0 0.232365
0.796875 0.00390625 0 0 0 0.226624
0.800781 0.00390625 0 0 0 0.220841
0.804688 0.00390625 0 0 0 0.215018
0.808594 0.00390625 0 0 0 0.209157
0.8125 0.00390625 0 0 0 0.203262
0.816406 0.00390625 0 0 0 0.197334
0.820313 0.00390625 0 0 0 0.191376
0.824219 0.00390625 0 0 0 0.185391
0.828125 0.00390625 0 0 0 0.179382
0.832031 0.00390625 0 0 0 0.173352
0.835938 0.00390625 0 0 0 0.167303
0.839844 0.00390625 0 0 0 0.161241
0.84375 0.00390625 0 0 0 0.155167
0.847656 0.00390625 0 0 0 0.149087
0.851563 0.00390625 0 0 0 0.143003
0.855469 0.00390625 0 0 0 0.13692
0.859375 0.00390625 0 0 0 0.130843
0.863281 0.00390625 0 0 0 0.124778
0.867188 0.00390625 0 0 0 0.118728
0.871094 0.00390625 0 0 0 0.1127
0.875 0.00390625 0 0 0 0.106701
0.878906 0.00390625 0 0 0 0.100737
0.882813 0.00390625 0 0 0 0.0948145
0.886719 0.00390625 0 0 0 0.0889425
0.890625 0.00390625 0 0 0 0.083129
0.894531 0.00390625 0 0 0 0.0773833
0.898438 0.00390625 0 0 0 0.0717151
0.902344 0.00390625 0 0 0 0.0661351
0.90625 0.00390625 0 0 0 0.0606548
0.910156 0.00390625 0 0 0 0.0552865
0.914063 0.00390625 0 0 0 0.0500433
0.917969 0.00390625 0 0 0 0.0449395
0.921875 0.00390625 0 0 0 0.03999
0.925781 0.00390625 0 0 0 0.035211
0.929688 0.00390625 0 0 0 0.0306196
0.933594 0.00390625 0 0 0 0.0262339
0.9375 0.00390625 0 0 0 0.0220729
0.941406 0.00390625 0 0 0 0.0181566
0.945313 0.00390625 0 0 0 0.0145058
0.949219 0.00390625 0 0 0 0.0111419
0.953125 0.00390625 0 0 0 0.00808685
0.957031 0.00390625 0 0 0 0.00536277
0.960938 0.00390625 0 0 0 0.00299138
0.964844 0.00390625 0 0 0 0.000993407
0.96875 0.00390625 0 0 0 -0.000612415
0.972656 0.00390625 0 0 0 -0.00181088
0.976563 0.00390625 0 0 0 -0.00259259
0.980469 0.00390625 0 0 0 -0.00295751
0.984375 0.00390625 0 0 0 -0.00292065
0.988281 0.00390625 0 0 0 -0.0025215
0.992188 0.00390625 0 0 0 -0.00183938
0.996094 0.00390625 0 0 0 -0.00101778
1 0.00390625 0 0 0 -0.000294819
0 0.0078125 0 0 -0.000294819 0
0.00390625 0.0078125 0 0 0 -0.000290238
0.0078125 0.0078125 7.67731e-07 -7.67391e-07 2.21436e-09 -0.000205506
0.0117188 0.0078125 1.87269e-06 -8.66519e-07 5.99531e-09 -0.000121086
0.015625 0.0078125 2.51189e-06 -4.95197e-07 8.98416e-09 2.96926e-05
0.0195313 0.0078125 2.20452e-06 1.24159e-07 9.8642e-09 0.00034312
0.0234375 0.0078125 6.92801e-07 8.52301e-07 8.01437e-09 0.000889654
0.0273438 0.0078125 -2.13872e-06 1.61194e-06 3.20581e-09 0.00171025
0.03125 0.0078125 -6.31817e-06 2.36157e-06 -4.57868e-09 0.00282356
0.0351563 0.0078125 -1.18213e-05 3.0793e-06 -1.52438e-08 0.00423318
0.0390625 0.0078125 -1.85932e-05 3.75395e-06 -2.86356e-08 0.00593312
0.0429688 0.0078125 -2.65615e-05 4.38037e-06 -4.45715e-08 0.00791142
0.046875 0.0078125 -3.5645e-05 4.95687e-06 -6.28574e-08 0.0101526
0.0507813 0.0078125 -4.57591e-05 5.48377e-06 -8.32974e-08 0.0126394
0.0546875 0.0078125 -5.68186e-05 5.96257e-06 -1.057e-07 0.0153534
0.0585938 0.0078125 -6.87402e-05 6.39547e-06 -1.29881e-07 0.0182764
0.0625 0.0078125 -8.14437e-05 6.78505e-06 -1.55665e-07 0.0213902
0.0664063 0.0078125 -9.48531e-05 7.13407e-06 -1.8289e-07 0.0246774
0.0703125 0.0078125 -0.000108896 7.44538e-06 -2.11402e-07 0.0281213
0.0742188 0.0078125 -0.000123507 7.7218e-06 -2.41059e-07 0.031706
0.078125 0.0078125 -0.000138622 7.96608e-06 -2.71731e-07 0.0354168
0.0820313 0.0078125 -0.000154184 8.18088e-06 -3.03296e-07 0.0392399
0.0859375 0.0078125 -0.000170139 8.36876e-06 -3.35647e-07 0.0431625
0.0898438 0.0078125 -0.00018644 8.53212e-06 -3.68681e-07 0.0471727
0.09375 0.0078125 -0.000203041 8.67323e-06 -4.02308e-07 0.0512596
0.0976563 0.0078125 -0.000219903 8.79422e-06 -4.36445e-07 0.0554135
0.101563 0.0078125 -0.000236988 8.89708e-06 -4.71017e-07 0.0596251
0.105469 0.0078125 -0.000254263 8.98365e-06 -5.05958e-07 0.0638864
0.109375 0.0078125 -0.000271699 9.05563e-06 -5.41208e-07 0.0681897
0.113281 0.0078125 -0.000289268 9.11458e-06 -5.76711e-07 0.0725286
0.117188 0.0078125 -0.000306947 9.16195e-06 -6.12422e-07 0.0768968
0.121094 0.0078125 -0.000324714 9.19905e-06 -6.48296e-07 0.081289
0.125 0.0078125 -0.000342551 9.22707e-06 -6.84297e-07 0.0857003
0.128906 0.0078125 -0.000360439 9.24709e-06 -7.20391e-07 0.0901265
0.132813 0.0078125 -0.000378365 9.26007e-06 -7.56549e-07 0.0945638
0.136719 0.0078125 -0.000396316 9.2669e-06 -7.92745e-07 0.0990086
0.140625 0.0078125 -0.000414279 9.26835e-06 -8.28957e-07 0.103458
0.144531 0.0078125 -0.000432245 9.26512e-06 -8.65165e-07 0.10791
0.148438 0.0078125 -0.000450204 9.2578e-06 -9.01352e-07 0.112361
0.152344 0.0078125 -0.000468149 9.24694e-06 -9.37503e-07 0.11681
0.15625 0.0078125 -0.000486074 9.23302e-06 -9.73606e-07 0.121254
0.160156 0.0078125 -0.000503972 9.21642e-06 -1.00965e-06 0.125693
0.164063 0.0078125 -0.000521838 9.19751e-06 -1.04562e-06 0.130125
0.167969 0.0078125 -0.000539668 9.17658e-06 -1.08152e-06 0.134549
0.171875 0.0078125 -0.000557458 9.15389e-06 -1.11733e-06 0.138963
0.175781 0.0078125 -0.000575203 9.12965e-06 -1.15305e-06 0.143366
0.179688 0.0078125 -0.000592902 9.10403e-06 -1.18867e-06 0.147759
0.183594 0.0078125 -0.000610552 9.07718e-06 -1.22419e-06 0.152139
0.1875 0.0078125 -0.000628149 9.04922e-06 -1.2596e-06 0.156507
0.191406 0.0078125 -0.000645692 9.02022e-06 -1.2949e-06 0.160862
0.195313 0.0078125 -0.000663178 8.99027e-06 -1.33009e-06 0.165203
0.199219 0.0078125 -0.000680606 8.95942e-06 -1.36516e-06 0.169529
0.203125 0.0078125 -0.000697973 8.92768e-06 -1.40011e-06 0.17384
0.207031 0.0078125 -0.000715278 8.89509e-06 -1.43493e-06 0.178137
0.210938 0.0078125 -0.00073252 8.86166e-06 -1.46962e-06 0.182417
0.214844 0.0078125 -0.000749695 8.82737e-06 -1.50418e-06 0.186681
0.21875 0.0078125 -0.000766803 8.79223e-06 -1.5386e-06 0.190928
0.222656 0.0078125 -0.000783842 8.75621e-06 -1.57289e-06 0.195157
0.226563 0.0078125 -0.00080081 8.71929e-06 -1.60704e-06 0.199369
0.230469 0.0078125 -0.000817705 8.68144e-06 -1.64103e-06 0.203563
0.234375 0.0078125 -0.000834525 8.64264e-06 -1.67488e-06 0.207738
0.238281 0.0078125 -0.000851269 8.60284e-06 -1.70858e-06 0.211894
0.242188 0.0078125 -0.000867934 8.56202e-06 -1.74212e-06 0.21603
0.246094 0.0078125 -0.000884518 8.52013e-06 -1.77549e-06 0.220146
0.25 0.0078125 -0.000901019 8.47714e-06 -1.80871e-06 0.224241
0.253906 0.0078125 -0.000917435 8.43301e-06 -1.84175e-06 0.228315
0.257813 0.0078125 -0.000933763 8.38769e-06 -1.87462e-06 0.232367
0.261719 0.0078125 -0.000950002 8.34115e-06 -1.9073e-06 0.236397
0.265625 0.0078125 -0.000966149 8.29335e-06 -1.93981e-06 0.240403
0.269531 0.0078125 -0.000982201 8.24424e-06 -1.97212e-06 0.244386
0.273438 0.0078125 -0.000998156 8.19379e-06 -2.00425e-06 0.248344
0.277344 0.0078125 -0.00101401 8.14195e-06 -2.03617e-06 0.252277
0.28125 0.0078125 -0.00102976 8.08868e-06 -2.06788e-06 0.256185
0.285156 0.0078125 -0.00104541 8.03396e-06 -2.09939e-06 0.260066
0.289063 0.0078125 -0.00106095 7.97773e-06 -2.13068e-06 0.26392
0.292969 0.0078125 -0.00107638 7.91996e-06 -2.16175e-06 0.267746
0.296875 0.0078125 -0.00109169 7.86061e-06 -2.19259e-06 0.271544
0.300781 0.0078125 -0.00110688 7.79964e-06 -2.22319e-06 0.275313
0.304688 0.0078125 -0.00112196 7.73703e-06 -2.25355e-06 0.279051
0.308594 0.0078125 -0.00113691 7.67272e-06 -2.28367e-06 0.282758
0.3125 0.0078125 -0.00115173 7.60669e-06 -2.31353e-06 0.286434
0.316406 0.0078125 -0.00116643 7.5389e-06 -2.34313e-06 0.290077
0.320313 0.0078125 -0.00118099 7.46932e-06 -2.37246e-06 0.293687
0.324219 0.0078125 -0.00119541 7.39791e-06 -2.40152e-06 0.297263
0.328125 0.0078125 -0.00120969 7.32464e-06 -2.43029e-06 0.300803
0.332031 0.0078125 -0.00122383 7.24947e-06 -2.45878e-06 0.304308
0.335938 0.0078125 -0.00123782 7.17238e-06 -2.48697e-06 0.307776
0.339844 0.0078125 -0.00125166 7.09333e-06 -2.51485e-06 0.311205
0.34375 0.0078125 -0.00126534 7.0123e-06 -2.54242e-06 0.314596
0.347656 0.0078125 -0.00127886 6.92924e-06 -2.56967e-06 0.317948
0.351563 0.0078125 -0.00129222 6.84414e-06 -2.59659e-06 0.321259
0.355469 0.0078125 -0.00130542 6.75696e-06 -2.62317e-06 0.324528
0.359375 0.0078125 -0.00131844 6.66767e-06 -2.64942e-06 0.327754
0.363281 0.0078125 -0.00133128 6.57625e-06 -2.6753e-06 0.330937
0.367188 0.0078125 -0.00134395 6.48268e-06 -2.70083e-06 0.334075
0.371094 0.0078125 -0.00135643 6.38692e-06 -2.72599e-06 0.337168
0.375 0.0078125 -0.00136872 6.28896e-06 -2.75077e-06 0.340214
0.378906 0.0078125 -0.00138082 6.18876e-06 -2.77516e-06 0.343212
0.382813 0.0078125 -0.00139273 6.08631e-06 -2.79916e-06 0.346162
0.386719 0.0078125 -0.00140443 5.98159e-06 -2.82275e-06 0.349061
0.390625 0.0078125 -0.00141593 5.87457e-06 -2.84593e-06 0.35191
0.394531 0.0078125 -0.00142722 5.76524e-06 -2.86868e-06 0.354707
0.398438 0.0078125 -0.00143829 5.65358e-06 -2.89101e-06 0.357451
0.402344 0.0078125 -0.00144915 5.53958e-06 -2.91289e-06 0.36014
0.40625 0.0078125 -0.00145978 5.42321e-06 -2.93432e-06 0.362774
0.410156 0.0078125 -0.00147019 5.30447e-06 -2.9553e-06 0.365352
0.414063 0.0078125 -0.00148036 5.18335e-06 -2.97581e-06 0.367873
0.417969 0.0078125 -0.0014903 5.05983e-06 -2.99583e-06 0.370334
0.421875 0.0078125 -0.00149999 4.93391e-06 -3.01538e-06 0.372736
0.425781 0.0078125 -0.00150944 4.80557e-06 -3.03442e-06 0.375077
0.429688 0.0078125 -0.00151864 4.67483e-06 -3.05296e-06 0.377356
0.433594 0.0078125 -0.00152759 4.54166e-06 -3.07098e-06 0.379572
0.4375 0.0078125 -0.00153627 4.40608e-06 -3.08848e-06 0.381724
0.441406 0.0078125 -0.00154469 4.26808e-06 -3.10545e-06 0.38381
0.445313 0.0078125 -0.00155284 4.12767e-06 -3.12187e-06 0.385829
0.449219 0.0078125 -0.00156071 3.98485e-06 -3.13773e-06 0.387781
0.453125 0.0078125 -0.00156831 3.83963e-06 -3.15304e-06 0.389664
0.457031 0.0078125 -0.00157562 3.69202e-06 -3.16777e-06 0.391477
0.460938 0.0078125 -0.00158265 3.54202e-06 -3.18192e-06 0.39322
0.464844 0.0078125 -0.00158938 3.38966e-06 -3.19548e-06 0.394889
0.46875 0.0078125 -0.00159582 3.23496e-06 -3.20844e-06 0.396486
0.472656 0.0078125 -0.00160196 3.07792e-06 -3.2208e-06 0.398008
0.476563 0.0078125 -0.00160779 2.91858e-06 -3.23253e-06 0.399455
0.480469 0.0078125 -0.00161331 2.75696e-06 -3.24364e-06 0.400826
0.484375 0.0078125 -0.00161852 2.59307e-06 -3.25411e-06 0.402118
0.488281 0.0078125 -0.0016234 2.42697e-06 -3.26393e-06 0.403332
0.492188 0.0078125 -0.00162797 2.25867e-06 -3.27311e-06 0.404467
0.496094 0.0078125 -0.00163221 2.08821e-06 -3.28162e-06 0.405521
0.5 0.0078125 -0.00163611 1.91563e-06 -3.28946e-06 0.406493
0.503906 0.0078125 -0.00163969 1.74097e-06 -3.29662e-06 0.407382
0.507813 0.0078125 -0.00164292 1.56427e-06 -3.3031e-06 0.408187
0.511719 0.0078125 -0.00164581 1.38559e-06 -3.30888e-06 0.408908
0.515625 0.0078125 -0.00164835 1.20496e-06 -3.31396e-06 0.409544
0.519531 0.0078125 -0.00165054 1.02244e-06 -3.31833e-06 0.410093
0.523438 0.0078125 -0.00165238 8.38094e-07 -3.32198e-06 0.410555
0.527344 0.0078125 -0.00165386 6.5197e-07 -3.32491e-06 0.410928
0.53125 0.0078125 -0.00165498 4.6413e-07 -3.32711e-06 0.411213
0.535156 0.0078125 -0.00165573 2.7464e-07 -3.32857e-06 0.411408
0.539063 0.0078125 -0.00165612 8.35654e-08 -3.32929e-06 0.411512
0.542969 0.0078125 -0.00165614 -1.09024e-07 -3.32925e-06 0.411525
0.546875 0.0078125 -0.00165579 -3.03057e-07 -3.32847e-06 0.411446
0.550781 0.0078125 -0.00165506 -4.98457e-07 -3.32692e-06 0.411275
0.554688 0.0078125 -0.00165395 -6.95147e-07 -3.3246e-06 0.41101
0.558594 0.0078125 -0.00165246 -8.93046e-07 -3.32152e-06 0.410651
0.5625 0.0078125 -0.00165058 -1.09207e-06 -3.31765e-06 0.410198
0.566406 0.0078125 -0.00164832 -1.29214e-06 -3.31301e-06 0.40965
0.570313 0.0078125 -0.00164568 -1.49316e-06 -3.30759e-06 0.409007
0.574219 0.0078125 -0.00164265 -1.69504e-06 -3.30137e-06 0.408267
0.578125 0.0078125 -0.00163922 -1.89768e-06 -3.29437e-06 0.407432
0.582031 0.0078125 -0.0016354 -2.10101e-06 -3.28657e-06 0.406499
0.585938 0.0078125 -0.0016312 -2.3049e-06 -3.27798e-06 0.40547
0.589844 0.0078125 -0.00162659 -2.50928e-06 -3.26859e-06 0.404344
0.59375 0.0078125 -0.00162159 -2.71402e-06 -3.2584e-06 0.40312
0.597656 0.0078125 -0.0016162 -2.91904e-06 -3.24741e-06 0.401799
0.601563 0.0078125 -0.00161041 -3.12423e-06 -3.23562e-06 0.40038
0.605469 0.0078125 -0.00160422 -3.32947e-06 -3.22302e-06 0.398863
0.609375 0.0078125 -0.00159764 -3.53466e-06 -3.20962e-06 0.397249
0.613281 0.0078125 -0.00159066 -3.7397e-06 -3.19542e-06 0.395537
0.617188 0.0078125 -0.00158329 -3.94446e-06 -3.18042e-06 0.393727
0.621094 0.0078125 -0.00157551 -4.14885e-06 -3.16462e-06 0.391819
0.625 0.0078125 -0.00156735 -4.35274e-06 -3.14803e-06 0.389814
0.628906 0.0078125 -0.00155879 -4.55602e-06 -3.13063e-06 0.387712
0.632813 0.0078125 -0.00154984 -4.75858e-06 -3.11245e-06 0.385514
0.636719 0.0078125 -0.0015405 -4.9603e-06 -3.09347e-06 0.383218
0.640625 0.0078125 -0.00153077 -5.16108e-06 -3.07371e-06 0.380827
0.644531 0.0078125 -0.00152065 -5.36079e-06 -3.05316e-06 0.37834
0.648438 0.0078125 -0.00151015 -5.55932e-06 -3.03183e-06 0.375757
0.652344 0.0078125 -0.00149926 -5.75655e-06 -3.00974e-06 0.37308
0.65625 0.0078125 -0.00148799 -5.95238e-06 -2.98687e-06 0.370309
0.660156 0.0078125 -0.00147635 -6.14669e-06 -2.96324e-06 0.367445
0.664063 0.0078125 -0.00146433 -6.33937e-06 -2.93885e-06 0.364487
0.667969 0.0078125 -0.00145194 -6.53031e-06 -2.91372e-06 0.361438
0.671875 0.0078125 -0.00143918 -6.7194e-06 -2.88784e-06 0.358298
0.675781 0.0078125 -0.00142606 -6.90652e-06 -2.86122e-06 0.355068
0.679688 0.0078125 -0.00141257 -7.09159e-06 -2.83388e-06 0.351748
0.683594 0.0078125 -0.00139873 -7.27448e-06 -2.80582e-06 0.348339
0.6875 0.0078125 -0.00138454 -7.4551e-06 -2.77705e-06 0.344844
0.691406 0.0078125 -0.00136999 -7.63334e-06 -2.74758e-06 0.341262
0.695313 0.0078125 -0.00135511 -7.80912e-06 -2.71741e-06 0.337594
0.699219 0.0078125 -0.00133988 -7.98233e-06 -2.68656e-06 0.333843
0.703125 0.0078125 -0.00132432 -8.15288e-06 -2.65504e-06 0.330009
0.707031 0.0078125 -0.00130843 -8.32068e-06 -2.62286e-06 0.326093
0.710938 0.0078125 -0.00129222 -8.48564e-06 -2.59003e-06 0.322096
0.714844 0.0078125 -0.00127569 -8.64768e-06 -2.55656e-06 0.318021
0.71875 0.0078125 -0.00125885 -8.80672e-06 -2.52246e-06 0.313868
0.722656 0.0078125 -0.0012417 -8.96268e-06 -2.48775e-06 0.309638
0.726563 0.0078125 -0.00122425 -9.11547e-06 -2.45243e-06 0.305333
0.730469 0.0078125 -0.00120651 -9.26504e-06 -2.41652e-06 0.300955
0.734375 0.0078125 -0.00118847 -9.4113e-06 -2.38003e-06 0.296505
0.738281 0.0078125 -0.00117016 -9.55419e-06 -2.34298e-06 0.291985
0.742188 0.0078125 -0.00115157 -9.69365e-06 -2.30537e-06 0.287396
0.746094 0.0078125 -0.0011327 -9.8296e-06 -2.26723e-06 0.28274
0.75 0.0078125 -0.00111358 -9.962e-06 -2.22856e-06 0.278018
0.753906 0.0078125 -0.0010942 -1.00908e-05 -2.18939e-06 0.273232
0.757813 0.0078125 -0.00107457 -1.02159e-05 -2.14971e-06 0.268383
0.761719 0.0078125 -0.00105471 -1.03372e-05 -2.10955e-06 0.263475
0.765625 0.0078125 -0.0010346 -1.04548e-05 -2.06893e-06 0.258507
0.769531 0.0078125 -0.00101427 -1.05685e-05 -2.02786e-06 0.253483
0.773438 0.0078125 -0.000993722 -1.06782e-05 -1.98634e-06 0.248403
0.777344 0.0078125 -0.00097296 -1.0784e-05 -1.94441e-06 0.243271
0.78125 0.0078125 -0.000951994 -1.08858e-05 -1.90207e-06 0.238087
0.785156 0.0078125 -0.000930831 -1.09834e-05 -1.85934e-06 0.232853
0.789063 0.0078125 -0.000909481 -1.10768e-05 -1.81624e-06 0.227572
0.792969 0.0078125 -0.00088795 -1.11659e-05 -1.77278e-06 0.222246
0.796875 0.0078125 -0.000866247 -1.12506e-05 -1.72898e-06 0.216876
0.800781 0.0078125 -0.000844382 -1.13308e-05 -1.68486e-06 0.211465
0.804688 0.0078125 -0.000822362 -1.14063e-05 -1.64043e-06 0.206015
0.808594 0.0078125 -0.000800197 -1.14771e-05 -1.59572e-06 0.200529
0.8125 0.0078125 -0.000777896 -1.1543e-05 -1.55074e-06 0.195007
0.816406 0.0078125 -0.00075547 -1.16038e-05 -1.50551e-06 0.189455
0.820313 0.0078125 -0.000732927 -1.16593e-05 -1.46005e-06 0.183872
0.824219 0.0078125 -0.00071028 -1.17092e-05 -1.41439e-06 0.178263
0.828125 0.0078125 -0.000687538 -1.17534e-05 -1.36855e-06 0.17263
0.832031 0.0078125 -0.000664714 -1.17915e-05 -1.32254e-06 0.166976
0.835938 0.0078125 -0.000641819 -1.18231e-05 -1.27639e-06 0.161303
0.839844 0.0078125 -0.000618867 -1.1848e-05 -1.23014e-06 0.155616
0.84375 0.0078125 -0.000595872 -1.18656e-05 -1.1838e-06 0.149918
0.847656 0.0078125 -0.000572847 -1.18756e-05 -1.13741e-06 0.144212
0.851563 0.0078125 -0.000549809 -1.18774e-05 -1.09099e-06 0.138503