Title=" Lid Driven Flow"
VARIABLES="X","Y","U","V","psi","xi"
ZONE T= "BOX", I= 201, J=201, F=POINT
0 0 0 0 0.0026884 0
0.005 0 0 0 0 0
0.01 0 0 0 0 0
0.015 0 0 0 0 161.891
0.02 0 0 0 0 176.124
0.025 0 0 0 0 155.607
0.03 0 0 0 0 133.221
0.035 0 0 0 0 115.705
0.04 0 0 0 0 102.855
0.045 0 0 0 0 93.3245
0.05 0 0 0 0 86.0038
0.055 0 0 0 0 80.1593
0.06 0 0 0 0 75.3325
0.065 0 0 0 0 71.2347
0.07 0 0 0 0 67.6783
0.075 0 0 0 0 64.537
0.08 0 0 0 0 61.7228
0.085 0 0 0 0 59.1725
0.09 0 0 0 0 56.8395
0.095 0 0 0 0 54.689
0.1 0 0 0 0 52.6941
0.105 0 0 0 0 50.834
0.11 0 0 0 0 49.0924
0.115 0 0 0 0 47.456
0.12 0 0 0 0 45.914
0.125 0 0 0 0 44.4574
0.13 0 0 0 0 43.0788
0.135 0 0 0 0 41.7717
0.14 0 0 0 0 40.5306
0.145 0 0 0 0 39.3505
0.15 0 0 0 0 38.2272
0.155 0 0 0 0 37.1568
0.16 0 0 0 0 36.1357
0.165 0 0 0 0 35.1608
0.17 0 0 0 0 34.229
0.175 0 0 0 0 33.3377
0.18 0 0 0 0 32.4842
0.185 0 0 0 0 31.6662
0.19 0 0 0 0 30.8814
0.195 0 0 0 0 30.1277
0.2 0 0 0 0 29.4031
0.205 0 0 0 0 28.7058
0.21 0 0 0 0 28.034
0.215 0 0 0 0 27.3859
0.22 0 0 0 0 26.7601
0.225 0 0 0 0 26.1549
0.23 0 0 0 0 25.5691
0.235 0 0 0 0 25.0012
0.24 0 0 0 0 24.45
0.245 0 0 0 0 23.9142
0.25 0 0 0 0 23.3928
0.255 0 0 0 0 22.8848
0.26 0 0 0 0 22.389
0.265 0 0 0 0 21.9046
0.27 0 0 0 0 21.4306
0.275 0 0 0 0 20.9664
0.28 0 0 0 0 20.511
0.285 0 0 0 0 20.0638
0.29 0 0 0 0 19.6241
0.295 0 0 0 0 19.1913
0.3 0 0 0 0 18.7649
0.305 0 0 0 0 18.3442
0.31 0 0 0 0 17.9289
0.315 0 0 0 0 17.5184
0.32 0 0 0 0 17.1125
0.325 0 0 0 0 16.7106
0.33 0 0 0 0 16.3126
0.335 0 0 0 0 15.9181
0.34 0 0 0 0 15.5269
0.345 0 0 0 0 15.1387
0.35 0 0 0 0 14.7534
0.355 0 0 0 0 14.3709
0.36 0 0 0 0 13.991
0.365 0 0 0 0 13.6136
0.37 0 0 0 0 13.2387
0.375 0 0 0 0 12.8663
0.38 0 0 0 0 12.4963
0.385 0 0 0 0 12.1287
0.39 0 0 0 0 11.7637
0.395 0 0 0 0 11.4012
0.4 0 0 0 0 11.0414
0.405 0 0 0 0 10.6844
0.41 0 0 0 0 10.3303
0.415 0 0 0 0 9.97924
0.42 0 0 0 0 9.63136
0.425 0 0 0 0 9.28684
0.43 0 0 0 0 8.94588
0.435 0 0 0 0 8.60866
0.44 0 0 0 0 8.2754
0.445 0 0 0 0 7.94629
0.45 0 0 0 0 7.62155
0.455 0 0 0 0 7.30142
0.46 0 0 0 0 6.98609
0.465 0 0 0 0 6.67581
0.47 0 0 0 0 6.3708
0.475 0 0 0 0 6.07126
0.48 0 0 0 0 5.77742
0.485 0 0 0 0 5.48948
0.49 0 0 0 0 5.20764
0.495 0 0 0 0 4.9321
0.5 0 0 0 0 4.66304
0.505 0 0 0 0 4.40062
0.51 0 0 0 0 4.14501
0.515 0 0 0 0 3.89634
0.52 0 0 0 0 3.65474
0.525 0 0 0 0 3.42033
0.53 0 0 0 0 3.1932
0.535 0 0 0 0 2.97342
0.54 0 0 0 0 2.76107
0.545 0 0 0 0 2.55617
0.55 0 0 0 0 2.35877
0.555 0 0 0 0 2.16885
0.56 0 0 0 0 1.98642
0.565 0 0 0 0 1.81144
0.57 0 0 0 0 1.64388
0.575 0 0 0 0 1.48366
0.58 0 0 0 0 1.33071
0.585 0 0 0 0 1.18493
0.59 0 0 0 0 1.04622
0.595 0 0 0 0 0.91446
0.6 0 0 0 0 0.789511
0.605 0 0 0 0 0.671228
0.61 0 0 0 0 0.559455
0.615 0 0 0 0 0.454028
0.62 0 0 0 0 0.354771
0.625 0 0 0 0 0.261503
0.63 0 0 0 0 0.174037
0.635 0 0 0 0 0.0921806
0.64 0 0 0 0 0.0157363
0.645 0 0 0 0 -0.055496
0.65 0 0 0 0 -0.121719
0.655 0 0 0 0 -0.183135
0.66 0 0 0 0 -0.239951
0.665 0 0 0 0 -0.29237
0.67 0 0 0 0 -0.340598
0.675 0 0 0 0 -0.384837
0.68 0 0 0 0 -0.425289
0.685 0 0 0 0 -0.462154
0.69 0 0 0 0 -0.495631
0.695 0 0 0 0 -0.525914
0.7 0 0 0 0 -0.553195
0.705 0 0 0 0 -0.577665
0.71 0 0 0 0 -0.599507
0.715 0 0 0 0 -0.618904
0.72 0 0 0 0 -0.636031
0.725 0 0 0 0 -0.651059
0.73 0 0 0 0 -0.664153
0.735 0 0 0 0 -0.675471
0.74 0 0 0 0 -0.685163
0.745 0 0 0 0 -0.69337
0.75 0 0 0 0 -0.700225
0.755 0 0 0 0 -0.705848
0.76 0 0 0 0 -0.710349
0.765 0 0 0 0 -0.713828
0.77 0 0 0 0 -0.716368
0.775 0 0 0 0 -0.718042
0.78 0 0 0 0 -0.718907
0.785 0 0 0 0 -0.719008
0.79 0 0 0 0 -0.718374
0.795 0 0 0 0 -0.717022
0.8 0 0 0 0 -0.714954
0.805 0 0 0 0 -0.71216
0.81 0 0 0 0 -0.708619
0.815 0 0 0 0 -0.704296
0.82 0 0 0 0 -0.699151
0.825 0 0 0 0 -0.693131
0.83 0 0 0 0 -0.68618
0.835 0 0 0 0 -0.678237
0.84 0 0 0 0 -0.669236
0.845 0 0 0 0 -0.659113
0.85 0 0 0 0 -0.647802
0.855 0 0 0 0 -0.635244
0.86 0 0 0 0 -0.621383
0.865 0 0 0 0 -0.606171
0.87 0 0 0 0 -0.58957
0.875 0 0 0 0 -0.571555
0.88 0 0 0 0 -0.552112
0.885 0 0 0 0 -0.531246
0.89 0 0 0 0 -0.508976
0.895 0 0 0 0 -0.485341
0.9 0 0 0 0 -0.460403
0.905 0 0 0 0 -0.434242
0.91 0 0 0 0 -0.406964
0.915 0 0 0 0 -0.378695
0.92 0 0 0 0 -0.34959
0.925 0 0 0 0 -0.319827
0.93 0 0 0 0 -0.289609
0.935 0 0 0 0 -0.259168
0.94 0 0 0 0 -0.22876
0.945 0 0 0 0 -0.19867
0.95 0 0 0 0 -0.169209
0.955 0 0 0 0 -0.140717
0.96 0 0 0 0 -0.113562
0.965 0 0 0 0 -0.0881397
0.97 0 0 0 0 -0.0648745
0.975 0 0 0 0 -0.0442166
0.98 0 0 0 0 -0.0266361
0.985 0 0 0 0 -0.0126064
0.99 0 0 0 0 -0.0025658
0.995 0 0 0 0 0.00317392
1 0 0 0 0 0.00464124
0 0.005 0 0 0 0
0.005 0.005 0 0 0 0
0.01 0.005 0 0 0 73.7276
0.015 0.005 0 0 0 62.0542
0.02 0.005 0 0 0 45.6875
0.025 0.005 0 0 0 33.9097
0.03 0.005 0 0 0 26.0143
0.035 0.005 0 0 0 20.6
0.04 0.005 0 0 0 16.722
0.045 0.005 0 0 0 13.8251
0.05 0.005 0 0 0 11.5865
0.055 0.005 0 0 0 9.81218
0.06 0.005 0 0 0 8.37976
0.065 0.005 0 0 0 7.20814
0.07 0.005 0 0 0 6.24085
0.075 0.005 0 0 0 5.43693
0.08 0.005 0 0 0 4.76564
0.085 0.005 0 0 0 4.20327
0.09 0.005 0 0 0 3.73111
0.095 0.005 0 0 0 3.33419
0.1 0.005 0 0 0 3.00038
0.105 0.005 0 0 0 2.71974
0.11 0.005 0 0 0 2.48407
0.115 0.005 0 0 0 2.28659
0.12 0.005 0 0 0 2.12163
0.125 0.005 0 0 0 1.9845
0.13 0.005 0 0 0 1.87124
0.135 0.005 0 0 0 1.77853
0.14 0.005 0 0 0 1.7036
0.145 0.005 0 0 0 1.6441
0.15 0.005 0 0 0 1.59807
0.155 0.005 0 0 0 1.56382
0.16 0.005 0 0 0 1.53997
0.165 0.005 0 0 0 1.52531
0.17 0.005 0 0 0 1.51884
0.175 0.005 0 0 0 1.5197
0.18 0.005 0 0 0 1.52717
0.185 0.005 0 0 0 1.54062
0.19 0.005 0 0 0 1.55953
0.195 0.005 0 0 0 1.58344
0.2 0.005 0 0 0 1.61197
0.205 0.005 0 0 0 1.64477
0.21 0.005 0 0 0 1.68155
0.215 0.005 0 0 0 1.72207
0.22 0.005 0 0 0 1.76608
0.225 0.005 0 0 0 1.81339
0.23 0.005 0 0 0 1.86382
0.235 0.005 0 0 0 1.91721
0.24 0.005 0 0 0 1.9734
0.245 0.005 0 0 0 2.03224
0.25 0.005 0 0 0 2.09361
0.255 0.005 0 0 0 2.15738
0.26 0.005 0 0 0 2.22342
0.265 0.005 0 0 0 2.29161
0.27 0.005 0 0 0 2.36183
0.275 0.005 0 0 0 2.43396
0.28 0.005 0 0 0 2.50788
0.285 0.005 0 0 0 2.58347
0.29 0.005 0 0 0 2.66061
0.295 0.005 0 0 0 2.73916
0.3 0.005 0 0 0 2.81901
0.305 0.005 0 0 0 2.90002
0.31 0.005 0 0 0 2.98206
0.315 0.005 0 0 0 3.06498
0.32 0.005 0 0 0 3.14865
0.325 0.005 0 0 0 3.23293
0.33 0.005 0 0 0 3.31766
0.335 0.005 0 0 0 3.40269
0.34 0.005 0 0 0 3.48787
0.345 0.005 0 0 0 3.57305
0.35 0.005 0 0 0 3.65805
0.355 0.005 0 0 0 3.74272
0.36 0.005 0 0 0 3.82689
0.365 0.005 0 0 0 3.91038
0.37 0.005 0 0 0 3.99304
0.375 0.005 0 0 0 4.07469
0.38 0.005 0 0 0 4.15515
0.385 0.005 0 0 0 4.23425
0.39 0.005 0 0 0 4.31182
0.395 0.005 0 0 0 4.38768
0.4 0.005 0 0 0 4.46166
0.405 0.005 0 0 0 4.53358
0.41 0.005 0 0 0 4.60328
0.415 0.005 0 0 0 4.67057
0.42 0.005 0 0 0 4.7353
0.425 0.005 0 0 0 4.79729
0.43 0.005 0 0 0 4.85639
0.435 0.005 0 0 0 4.91244
0.44 0.005 0 0 0 4.96528
0.445 0.005 0 0 0 5.01477
0.45 0.005 0 0 0 5.06076
0.455 0.005 0 0 0 5.10311
0.46 0.005 0 0 0 5.14169
0.465 0.005 0 0 0 5.17639
0.47 0.005 0 0 0 5.20707
0.475 0.005 0 0 0 5.23363
0.48 0.005 0 0 0 5.25597
0.485 0.005 0 0 0 5.27399
0.49 0.005 0 0 0 5.28762
0.495 0.005 0 0 0 5.29678
0.5 0.005 0 0 0 5.3014
0.505 0.005 0 0 0 5.30143
0.51 0.005 0 0 0 5.29683
0.515 0.005 0 0 0 5.28756
0.52 0.005 0 0 0 5.27361
0.525 0.005 0 0 0 5.25496
0.53 0.005 0 0 0 5.23161
0.535 0.005 0 0 0 5.20358
0.54 0.005 0 0 0 5.17089
0.545 0.005 0 0 0 5.13358
0.55 0.005 0 0 0 5.0917
0.555 0.005 0 0 0 5.04531
0.56 0.005 0 0 0 4.99448
0.565 0.005 0 0 0 4.9393
0.57 0.005 0 0 0 4.87986
0.575 0.005 0 0 0 4.81627
0.58 0.005 0 0 0 4.74865
0.585 0.005 0 0 0 4.67713
0.59 0.005 0 0 0 4.60185
0.595 0.005 0 0 0 4.52296
0.6 0.005 0 0 0 4.44061
0.605 0.005 0 0 0 4.35499
0.61 0.005 0 0 0 4.26626
0.615 0.005 0 0 0 4.17462
0.62 0.005 0 0 0 4.08025
0.625 0.005 0 0 0 3.98335
0.63 0.005 0 0 0 3.88414
0.635 0.005 0 0 0 3.78282
0.64 0.005 0 0 0 3.67961
0.645 0.005 0 0 0 3.57473
0.65 0.005 0 0 0 3.46841
0.655 0.005 0 0 0 3.36085
0.66 0.005 0 0 0 3.2523
0.665 0.005 0 0 0 3.14298
0.67 0.005 0 0 0 3.03311
0.675 0.005 0 0 0 2.92292
0.68 0.005 0 0 0 2.81264
0.685 0.005 0 0 0 2.70247
0.69 0.005 0 0 0 2.59265
0.695 0.005 0 0 0 2.48337
0.7 0.005 0 0 0 2.37486
0.705 0.005 0 0 0 2.26729
0.71 0.005 0 0 0 2.16088
0.715 0.005 0 0 0 2.05581
0.72 0.005 0 0 0 1.95225
0.725 0.005 0 0 0 1.85038
0.73 0.005 0 0 0 1.75036
0.735 0.005 0 0 0 1.65233
0.74 0.005 0 0 0 1.55645
0.745 0.005 0 0 0 1.46285
0.75 0.005 0 0 0 1.37164
0.755 0.005 0 0 0 1.28295
0.76 0.005 0 0 0 1.19686
0.765 0.005 0 0 0 1.11348
0.77 0.005 0 0 0 1.03287
0.775 0.005 0 0 0 0.955119
0.78 0.005 0 0 0 0.880274
0.785 0.005 0 0 0 0.808385
0.79 0.005 0 0 0 0.73949
0.795 0.005 0 0 0 0.673616
0.8 0.005 0 0 0 0.610781
0.805 0.005 0 0 0 0.550994
0.81 0.005 0 0 0 0.494253
0.815 0.005 0 0 0 0.44055
0.82 0.005 0 0 0 0.389865
0.825 0.005 0 0 0 0.342175
0.83 0.005 0 0 0 0.297445
0.835 0.005 0 0 0 0.255635
0.84 0.005 0 0 0 0.216701
0.845 0.005 0 0 0 0.180589
0.85 0.005 0 0 0 0.147242
0.855 0.005 0 0 0 0.116597
0.86 0.005 0 0 0 0.0885889
0.865 0.005 0 0 0 0.063146
0.87 0.005 0 0 0 0.0401948
0.875 0.005 0 0 0 0.0196581
0.88 0.005 0 0 0 0.0014565
0.885 0.005 0 0 0 -0.0144918
0.89 0.005 0 0 0 -0.0282705
0.895 0.005 0 0 0 -0.0399649
0.9 0.005 0 0 0 -0.0496621
0.905 0.005 0 0 0 -0.0574504
0.91 0.005 0 0 0 -0.0634197
0.915 0.005 0 0 0 -0.0676618
0.92 0.005 0 0 0 -0.0702701
0.925 0.005 0 0 0 -0.0713411
0.93 0.005 0 0 0 -0.0709742
0.935 0.005 0 0 0 -0.0692736
0.94 0.005 0 0 0 -0.0663494
0.945 0.005 0 0 0 -0.0623194
0.95 0.005 0 0 0 -0.0573121
0.955 0.005 0 0 0 -0.0514697
0.96 0.005 0 0 0 -0.0449527
0.965 0.005 0 0 0 -0.0379457
0.97 0.005 0 0 0 -0.0306649
0.975 0.005 0 0 0 -0.0233676
0.98 0.005 0 0 0 -0.0163647
0.985 0.005 0 0 0 -0.0100332
0.99 0.005 0 0 0 -0.00482373
0.995 0.005 0 0 0 -0.0012377
1 0.005 0 0 0 0.000309124
0 0.01 0 0 0.000309124 0
0.005 0.01 0 0 0 -326.272
0.01 0.01 -0.180027 0.0775678 -0.000921596 -44.4173
0.015 0.01 -0.184787 -0.0350502 -0.000775678 9.51395
0.02 0.01 -0.156246 -0.0351806 -0.000571094 19.1055
0.025 0.01 -0.127383 -0.0245915 -0.000423872 18.9848
0.03 0.01 -0.104002 -0.0166371 -0.000325179 16.8268
0.035 0.01 -0.085849 -0.0116154 -0.0002575 14.5077
0.04 0.01 -0.0717194 -0.00846862 -0.000209025 12.4563
0.045 0.01 -0.0605544 -0.00641932 -0.000172814 10.7257
0.05 0.01 -0.051585 -0.00501618 -0.000144832 9.27961
0.055 0.01 -0.0442755 -0.00400845 -0.000122652 8.06899
0.06 0.01 -0.0382505 -0.00325504 -0.000104747 7.05083
0.065 0.01 -0.0332413 -0.00267364 -9.01017e-05 6.19056
0.07 0.01 -0.0290503 -0.00221401 -7.80106e-05 5.46098
0.075 0.01 -0.0255279 -0.001844 -6.79616e-05 4.84053
0.08 0.01 -0.0225578 -0.00154208 -5.95705e-05 4.31195
0.085 0.01 -0.0200483 -0.00129316 -5.25407e-05 3.86117
0.09 0.01 -0.0179253 -0.00108633 -4.66387e-05 3.47665
0.095 0.01 -0.0161285 -0.000913393 -4.16773e-05 3.14876
0.1 0.01 -0.0146081 -0.000768055 -3.75047e-05 2.86944
0.105 0.01 -0.0133228 -0.000645381 -3.39967e-05 2.63189
0.11 0.01 -0.0122383 -0.000541435 -3.10508e-05 2.43036
0.115 0.01 -0.0113257 -0.000453038 -2.85822e-05 2.25996
0.12 0.01 -0.0105606 -0.000377598 -2.65203e-05 2.11653
0.125 0.01 -0.00992268 -0.000312989 -2.48062e-05 1.99651
0.13 0.01 -0.00939458 -0.000257454 -2.33904e-05 1.89688
0.135 0.01 -0.00896171 -0.000209537 -2.22315e-05 1.81505
0.14 0.01 -0.00861169 -0.000168026 -2.12949e-05 1.7488
0.145 0.01 -0.008334 -0.000131909 -2.05512e-05 1.69623
0.15 0.01 -0.00811974 -0.000100341 -1.99757e-05 1.65573
0.155 0.01 -0.00796132 -7.26143e-05 -1.95477e-05 1.6259
0.16 0.01 -0.0078523 -4.81348e-05 -1.92495e-05 1.60555
0.165 0.01 -0.00778719 -2.64043e-05 -1.90663e-05 1.59366
0.17 0.01 -0.0077613 -7.00411e-06 -1.89854e-05 1.58935
0.175 0.01 -0.00777064 1.04173e-05 -1.89962e-05 1.59186
0.18 0.01 -0.00781178 2.61553e-05 -1.90895e-05 1.60054
0.185 0.01 -0.00788179 4.04575e-05 -1.92577e-05 1.61483
0.19 0.01 -0.00797814 5.3532e-05 -1.9494e-05 1.63423
0.195 0.01 -0.00809866 6.55525e-05 -1.97929e-05 1.65833
0.2 0.01 -0.00824146 7.66647e-05 -2.01495e-05 1.68676
0.205 0.01 -0.00840491 8.69896e-05 -2.05595e-05 1.71919
0.21 0.01 -0.00858757 9.66279e-05 -2.10194e-05 1.75534
0.215 0.01 -0.00878816 0.000105663 -2.15258e-05 1.79495
0.22 0.01 -0.00900558 0.000114164 -2.2076e-05 1.8378
0.225 0.01 -0.0092388 0.000122186 -2.26674e-05 1.88369
0.23 0.01 -0.00948691 0.000129775 -2.32978e-05 1.93242
0.235 0.01 -0.00974909 0.000136967 -2.39651e-05 1.98383
0.24 0.01 -0.0100245 0.000143792 -2.46674e-05 2.03776
0.245 0.01 -0.0103126 0.000150272 -2.5403e-05 2.09405
0.25 0.01 -0.0106125 0.000156424 -2.61701e-05 2.15257
0.255 0.01 -0.0109236 0.00016226 -2.69672e-05 2.21319
0.26 0.01 -0.0112452 0.000167789 -2.77927e-05 2.27576
0.265 0.01 -0.0115769 0.000173015 -2.86451e-05 2.34016
0.27 0.01 -0.0119178 0.000177941 -2.95228e-05 2.40626
0.275 0.01 -0.0122675 0.000182567 -3.04245e-05 2.47394
0.28 0.01 -0.0126253 0.000186891 -3.13485e-05 2.54307
0.285 0.01 -0.0129906 0.000190908 -3.22934e-05 2.61353
0.29 0.01 -0.0133627 0.000194615 -3.32576e-05 2.68518
0.295 0.01 -0.0137411 0.000198005 -3.42396e-05 2.75791
0.3 0.01 -0.014125 0.00020107 -3.52377e-05 2.83157
0.305 0.01 -0.0145139 0.000203804 -3.62503e-05 2.90604
0.31 0.01 -0.014907 0.000206197 -3.72758e-05 2.98118
0.315 0.01 -0.0153037 0.000208242 -3.83123e-05 3.05686
0.32 0.01 -0.0157032 0.00020993 -3.93582e-05 3.13294
0.325 0.01 -0.0161049 0.000211252 -4.04117e-05 3.20927
0.33 0.01 -0.0165081 0.000212199 -4.14708e-05 3.28573
0.335 0.01 -0.0169119 0.000212764 -4.25337e-05 3.36215
0.34 0.01 -0.0173157 0.000212937 -4.35985e-05 3.4384
0.345 0.01 -0.0177187 0.000212712 -4.46632e-05 3.51433
0.35 0.01 -0.01812 0.00021208 -4.57257e-05 3.58979
0.355 0.01 -0.018519 0.000211036 -4.67841e-05 3.66462
0.36 0.01 -0.0189148 0.000209574 -4.78362e-05 3.73868
0.365 0.01 -0.0193065 0.000207687 -4.88799e-05 3.81181
0.37 0.01 -0.0196935 0.000205372 -4.99131e-05 3.88386
0.375 0.01 -0.0200749 0.000202626 -5.09337e-05 3.95468
0.38 0.01 -0.0204499 0.000199445 -5.19395e-05 4.02411
0.385 0.01 -0.0208176 0.000195827 -5.29283e-05 4.09201
0.39 0.01 -0.0211772 0.000191773 -5.38979e-05 4.15821
0.395 0.01 -0.021528 0.000187283 -5.48462e-05 4.22258
0.4 0.01 -0.0218691 0.000182358 -5.57709e-05 4.28496
0.405 0.01 -0.0221998 0.000177001 -5.66699e-05 4.3452
0.41 0.01 -0.0225191 0.000171216 -5.75411e-05 4.40317
0.415 0.01 -0.0228265 0.000165008 -5.83823e-05 4.45872
0.42 0.01 -0.023121 0.000158384 -5.91914e-05 4.51171
0.425 0.01 -0.0234019 0.00015135 -5.99663e-05 4.56202
0.43 0.01 -0.0236686 0.000143917 -6.07051e-05 4.6095
0.435 0.01 -0.0239202 0.000136093 -6.14057e-05 4.65403
0.44 0.01 -0.0241562 0.000127891 -6.20662e-05 4.6955
0.445 0.01 -0.0243758 0.000119323 -6.26848e-05 4.73378
0.45 0.01 -0.0245784 0.000110404 -6.32597e-05 4.76877
0.455 0.01 -0.0247634 0.000101147 -6.37891e-05 4.80037
0.46 0.01 -0.0249303 9.15702e-05 -6.42714e-05 4.82847
0.465 0.01 -0.0250784 8.16908e-05 -6.47051e-05 4.85298
0.47 0.01 -0.0252074 7.15276e-05 -6.50886e-05 4.87382
0.475 0.01 -0.0253166 6.11007e-05 -6.54206e-05 4.89091
0.48 0.01 -0.0254058 5.04312e-05 -6.56999e-05 4.90418
0.485 0.01 -0.0254745 3.95413e-05 -6.59252e-05 4.91358
0.49 0.01 -0.0255223 2.84542e-05 -6.60956e-05 4.91904
0.495 0.01 -0.025549 1.71943e-05 -6.62101e-05 4.92052
0.5 0.01 -0.0255543 5.78658e-06 -6.62678e-05 4.91799
0.505 0.01 -0.025538 -5.74288e-06 -6.62682e-05 4.91142
0.51 0.01 -0.0254999 -1.73673e-05 -6.62107e-05 4.90078
0.515 0.01 -0.02544 -2.90592e-05 -6.60949e-05 4.88607
0.52 0.01 -0.0253582 -4.07904e-05 -6.59204e-05 4.8673
0.525 0.01 -0.0252544 -5.25324e-05 -6.56873e-05 4.84446
0.53 0.01 -0.0251288 -6.42559e-05 -6.53954e-05 4.81757
0.535 0.01 -0.0249815 -7.59315e-05 -6.50451e-05 4.78667
0.54 0.01 -0.0248125 -8.75295e-05 -6.46365e-05 4.75179
0.545 0.01 -0.0246221 -9.902e-05 -6.41701e-05 4.71297
0.55 0.01 -0.0244106 -0.000110373 -6.36466e-05 4.67029
0.555 0.01 -0.0241783 -0.000121559 -6.30667e-05 4.62379
0.56 0.01 -0.0239256 -0.000132549 -6.24314e-05 4.57355
0.565 0.01 -0.0236528 -0.000143312 -6.17416e-05 4.51967
0.57 0.01 -0.0233604 -0.00015382 -6.09986e-05 4.46222
0.575 0.01 -0.0230491 -0.000164046 -6.02037e-05 4.40133
0.58 0.01 -0.0227192 -0.00017396 -5.93585e-05 4.33708
0.585 0.01 -0.0223716 -0.000183538 -5.84645e-05 4.26961
0.59 0.01 -0.0220067 -0.000192751 -5.75234e-05 4.19903
0.595 0.01 -0.0216255 -0.000201577 -5.65373e-05 4.12549
0.6 0.01 -0.0212285 -0.000209992 -5.5508e-05 4.04912
0.605 0.01 -0.0208166 -0.000217972 -5.44377e-05 3.97006
0.61 0.01 -0.0203906 -0.000225498 -5.33286e-05 3.88849
0.615 0.01 -0.0199513 -0.00023255 -5.2183e-05 3.80455
0.62 0.01 -0.0194998 -0.000239111 -5.10034e-05 3.7184
0.625 0.01 -0.0190369 -0.000245163 -4.97922e-05 3.63023
0.63 0.01 -0.0185635 -0.000250694 -4.85521e-05 3.54019
0.635 0.01 -0.0180807 -0.000255691 -4.72856e-05 3.44848
0.64 0.01 -0.0175893 -0.000260143 -4.59955e-05 3.35527
0.645 0.01 -0.0170905 -0.000264042 -4.46845e-05 3.26074
0.65 0.01 -0.0165853 -0.000267382 -4.33553e-05 3.16509
0.655 0.01 -0.0160746 -0.000270158 -4.20109e-05 3.06849
0.66 0.01 -0.0155596 -0.000272369 -4.0654e-05 2.97113
0.665 0.01 -0.0150412 -0.000274013 -3.92875e-05 2.8732
0.67 0.01 -0.0145204 -0.000275095 -3.79141e-05 2.77489
0.675 0.01 -0.0139984 -0.000275617 -3.65368e-05 2.67639
0.68 0.01 -0.0134761 -0.000275585 -3.51582e-05 2.57786
0.685 0.01 -0.0129546 -0.000275009 -3.37812e-05 2.47951
0.69 0.01 -0.0124347 -0.000273898 -3.24083e-05 2.3815
0.695 0.01 -0.0119175 -0.000272264 -3.10424e-05 2.28401
0.7 0.01 -0.011404 -0.000270122 -2.96859e-05 2.18721
0.705 0.01 -0.010895 -0.000267486 -2.83414e-05 2.09126
0.71 0.01 -0.0103914 -0.000264375 -2.70112e-05 1.99633
0.715 0.01 -0.00989406 -0.000260807 -2.56978e-05 1.90257
0.72 0.01 -0.00940384 -0.000256802 -2.44033e-05 1.81012
0.725 0.01 -0.0089215 -0.000252383 -2.31299e-05 1.71914
0.73 0.01 -0.00844777 -0.000247571 -2.18796e-05 1.62975
0.735 0.01 -0.00798336 -0.000242391 -2.06543e-05 1.54208
0.74 0.01 -0.00752893 -0.000236867 -1.94558e-05 1.45625
0.745 0.01 -0.00708508 -0.000231024 -1.82857e-05 1.37238
0.75 0.01 -0.00665238 -0.000224889 -1.71456e-05 1.29056
0.755 0.01 -0.00623134 -0.000218488 -1.60369e-05 1.21089
0.76 0.01 -0.00582245 -0.000211847 -1.49608e-05 1.13347
0.765 0.01 -0.00542613 -0.000204993 -1.39185e-05 1.05836
0.77 0.01 -0.00504273 -0.000197954 -1.2911e-05 0.985643
0.775 0.01 -0.00467261 -0.000190755 -1.1939e-05 0.915376
0.78 0.01 -0.00431602 -0.000183423 -1.10035e-05 0.847611
0.785 0.01 -0.00397321 -0.000175985 -1.01049e-05 0.782395
0.79 0.01 -0.00364435 -0.000168465 -9.24365e-06 0.719762
0.795 0.01 -0.00332959 -0.000160889 -8.42022e-06 0.659741
0.8 0.01 -0.00302902 -0.00015328 -7.63478e-06 0.602352
0.805 0.01 -0.00274269 -0.000145662 -6.88744e-06 0.547607
0.81 0.01 -0.00247061 -0.000138057 -6.17817e-06 0.49551
0.815 0.01 -0.00221275 -0.000130486 -5.50687e-06 0.44606
0.82 0.01 -0.00196903 -0.000122969 -4.87331e-06 0.399246
0.825 0.01 -0.00173936 -0.000115526 -4.27718e-06 0.355051
0.83 0.01 -0.00152359 -0.000108173 -3.71805e-06 0.313454
0.835 0.01 -0.00132155 -0.000100929 -3.19543e-06 0.274425
0.84 0.01 -0.00113305 -9.38071e-05 -2.70874e-06 0.23793
0.845 0.01 -0.000957837 -8.68224e-05 -2.25734e-06 0.20393
0.85 0.01 -0.000795673 -7.99874e-05 -1.8405e-06 0.172381
0.855 0.01 -0.000646275 -7.33137e-05 -1.45744e-06 0.143233
0.86 0.01 -0.000509343 -6.68116e-05 -1.10734e-06 0.116433
0.865 0.01 -0.000384559 -6.04901e-05 -7.89299e-07 0.0919249
0.87 0.01 -0.000271585 -5.43573e-05 -5.02407e-07 0.0696483
0.875 0.01 -0.000170072 -4.84201e-05 -2.45698e-07 0.0495398
0.88 0.01 -7.96535e-05 -4.26845e-05 -1.81777e-08 0.0315332
0.885 0.01 4.63063e-08 -3.71559e-05 1.81176e-07 0.0155597
0.89 0.01 6.9415e-05 -3.18386e-05 3.53409e-07 0.00154813
0.895 0.01 0.00012885 -2.67367e-05 4.9959e-07 -0.0105749
0.9 0.01 0.000178757 -2.1854e-05 6.20804e-07 -0.020885
0.905 0.01 0.000219553 -1.71943e-05 7.18156e-07 -0.0294598
0.91 0.01 0.000251661 -1.27616e-05 7.92772e-07 -0.0363795
0.915 0.01 0.000275516 -8.56042e-06 8.45796e-07 -0.0417265
0.92 0.01 0.000291565 -4.59669e-06 8.78399e-07 -0.0455862
0.925 0.01 0.00030027 -8.77819e-07 8.91785e-07 -0.0480471
0.93 0.01 0.00030211 2.5864e-06 8.87197e-07 -0.049202
0.935 0.01 0.000297588 5.78296e-06 8.65938e-07 -0.0491487
0.94 0.01 0.000287235 8.69456e-06 8.29384e-07 -0.0479909
0.945 0.01 0.000271622 1.12982e-05 7.79007e-07 -0.0458402
0.95 0.01 0.00025137 1.35636e-05 7.16413e-07 -0.0428178
0.955 0.01 0.00022716 1.54505e-05 6.43381e-07 -0.0390568
0.96 0.01 0.000199757 1.6906e-05 5.61917e-07 -0.0347049
0.965 0.01 0.000170026 1.78606e-05 4.74328e-07 -0.0299274
0.97 0.01 0.00013896 1.82233e-05 3.83316e-07 -0.0249107
0.975 0.01 0.000107711 1.78757e-05 2.92099e-07 -0.0198641
0.98 0.01 7.76211e-05 1.66684e-05 2.04561e-07 -0.0150195
0.985 0.01 5.02382e-05 1.44264e-05 1.25416e-07 -0.0106232
0.99 0.01 2.73007e-05 1.09944e-05 6.02969e-08 -0.00690833
0.995 0.01 1.05995e-05 6.41609e-06 1.54712e-08 -0.00402178
1 0.01 1.54327e-06 1.54712e-06 -3.86421e-09 -0.00185444
0 0.015 0 0 -0.00123461 0
0.005 0.015 0 0 0 -255.978
0.01 0.015 -0.152813 0.184787 -0.00180027 -79.276
0.015 0.015 -0.206125 -0.023781 -0.00184787 -16.646
0.02 0.015 -0.204413 -0.0574037 -0.00156246 2.32699
0.025 0.015 -0.184397 -0.0522446 -0.00127383 7.95427
0.03 0.015 -0.160959 -0.0415344 -0.00104002 9.28833
0.035 0.015 -0.139084 -0.0322822 -0.00085849 9.16365
0.04 0.015 -0.120046 -0.0252946 -0.000717194 8.5506
0.045 0.015 -0.103859 -0.0201343 -0.000605543 7.80366
0.05 0.015 -0.0901847 -0.0162788 -0.00051585 7.05631
0.055 0.015 -0.0786307 -0.0133346 -0.000442755 6.35787
0.06 0.015 -0.0688464 -0.0110341 -0.000382505 5.72432
0.065 0.015 -0.0605396 -0.00920012 -0.000332413 5.15818
0.07 0.015 -0.0534714 -0.00771346 -0.000290503 4.65654
0.075 0.015 -0.0474471 -0.0064925 -0.000255278 4.21448
0.08 0.015 -0.0423071 -0.00547953 -0.000225578 3.82648
0.085 0.015 -0.0379196 -0.00463248 -0.000200483 3.48708
0.09 0.015 -0.0341745 -0.0039198 -0.000179253 3.19113
0.095 0.015 -0.0309797 -0.0033172 -0.000161285 2.93389
0.1 0.015 -0.0282576 -0.0028056 -0.00014608 2.71106
0.105 0.015 -0.0259425 -0.00236971 -0.000133228 2.51877
0.11 0.015 -0.0239784 -0.00199713 -0.000122383 2.35355
0.115 0.015 -0.0223181 -0.00167769 -0.000113257 2.21234
0.12 0.015 -0.0209209 -0.00140297 -0.000105606 2.0924
0.125 0.015 -0.0197525 -0.001166 -9.92264e-05 1.99131
0.13 0.015 -0.0187832 -0.000960932 -9.39455e-05 1.90697
0.135 0.015 -0.0179879 -0.000782864 -8.96168e-05 1.83749
0.14 0.015 -0.017345 -0.000627681 -8.61165e-05 1.78123
0.145 0.015 -0.0168362 -0.000491918 -8.33397e-05 1.73676
0.15 0.015 -0.0164454 -0.000372649 -8.11971e-05 1.70281
0.155 0.015 -0.0161593 -0.000267406 -7.96129e-05 1.67829
0.16 0.015 -0.0159663 -0.000174102 -7.85228e-05 1.66222
0.165 0.015 -0.0158563 -9.09715e-05 -7.78717e-05 1.65377
0.17 0.015 -0.0158207 -1.65242e-05 -7.76128e-05 1.65219
0.175 0.015 -0.0158523 5.05012e-05 -7.77062e-05 1.65684
0.18 0.015 -0.0159446 0.00011117 -7.81176e-05 1.66715
0.185 0.015 -0.0160922 0.000166382 -7.88177e-05 1.68263
0.19 0.015 -0.0162903 0.000216894 -7.97812e-05 1.70284
0.195 0.015 -0.0165349 0.000263346 -8.09864e-05 1.72739
0.2 0.015 -0.0168222 0.000306272 -8.24145e-05 1.75594
0.205 0.015 -0.0171491 0.000346121 -8.40489e-05 1.78818
0.21 0.015 -0.0175129 0.000383269 -8.58755e-05 1.82384
0.215 0.015 -0.017911 0.000418026 -8.78815e-05 1.86268
0.22 0.015 -0.0183413 0.00045065 -9.00556e-05 1.90448
0.225 0.015 -0.0188017 0.000481351 -9.23878e-05 1.94902
0.23 0.015 -0.0192905 0.000510304 -9.4869e-05 1.99612
0.235 0.015 -0.0198059 0.000537647 -9.74908e-05 2.04561
0.24 0.015 -0.0203464 0.00056349 -0.000100245 2.09733
0.245 0.015 -0.0209104 0.00058792 -0.000103126 2.15112
0.25 0.015 -0.0214967 0.000611004 -0.000106125 2.20682
0.255 0.015 -0.0221039 0.00063279 -0.000109236 2.26431
0.26 0.015 -0.0227306 0.000653313 -0.000112452 2.32344
0.265 0.015 -0.0233756 0.000672594 -0.000115769 2.38408
0.27 0.015 -0.0240376 0.000690644 -0.000119178 2.44609
0.275 0.015 -0.0247154 0.000707467 -0.000122675 2.50934
0.28 0.015 -0.0254077 0.000723056 -0.000126253 2.57371
0.285 0.015 -0.0261133 0.000737401 -0.000129906 2.63906
0.29 0.015 -0.0268308 0.000750486 -0.000133627 2.70527
0.295 0.015 -0.0275591 0.000762292 -0.000137411 2.7722
0.3 0.015 -0.0282969 0.000772794 -0.00014125 2.83972
0.305 0.015 -0.0290427 0.000781969 -0.000145139 2.9077
0.31 0.015 -0.0297953 0.00078979 -0.00014907 2.97601
0.315 0.015 -0.0305533 0.000796227 -0.000153037 3.04451
0.32 0.015 -0.0313154 0.000801254 -0.000157032 3.11308
0.325 0.015 -0.0320801 0.000804843 -0.00016105 3.18157
0.33 0.015 -0.032846 0.000806965 -0.000165081 3.24985
0.335 0.015 -0.0336117 0.000807593 -0.00016912 3.31778
0.34 0.015 -0.0343757 0.000806704 -0.000173157 3.38523
0.345 0.015 -0.0351365 0.000804273 -0.000177187 3.45206
0.35 0.015 -0.0358927 0.000800279 -0.0001812 3.51813
0.355 0.015 -0.0366427 0.000794702 -0.00018519 3.5833
0.36 0.015 -0.037385 0.000787528 -0.000189148 3.64745
0.365 0.015 -0.0381181 0.000778741 -0.000193066 3.71042
0.37 0.015 -0.0388404 0.000768332 -0.000196936 3.7721
0.375 0.015 -0.0395505 0.000756293 -0.00020075 3.83234
0.38 0.015 -0.0402467 0.000742623 -0.000204499 3.89101
0.385 0.015 -0.0409277 0.00072732 -0.000208176 3.94798
0.39 0.015 -0.0415917 0.000710389 -0.000211773 4.00313
0.395 0.015 -0.0422375 0.000691838 -0.000215281 4.05633
0.4 0.015 -0.0428634 0.000671681 -0.000218692 4.10746
0.405 0.015 -0.043468 0.000649933 -0.000221998 4.15639
0.41 0.015 -0.0440498 0.000626615 -0.000225192 4.20302
0.415 0.015 -0.0446075 0.000601754 -0.000228265 4.24722
0.42 0.015 -0.0451396 0.000575378 -0.00023121 4.2889
0.425 0.015 -0.0456449 0.000547522 -0.00023402 4.32795
0.43 0.015 -0.046122 0.000518226 -0.000236686 4.36426
0.435 0.015 -0.0465696 0.000487532 -0.000239203 4.39776
0.44 0.015 -0.0469865 0.000455487 -0.000241563 4.42833
0.445 0.015 -0.0473716 0.000422146 -0.000243759 4.45591
0.45 0.015 -0.0477237 0.000387563 -0.000245785 4.48042
0.455 0.015 -0.0480419 0.0003518 -0.000247635 4.50177
0.46 0.015 -0.048325 0.000314922 -0.000249304 4.51991
0.465 0.015 -0.0485723 0.000276998 -0.000250785 4.53478
0.47 0.015 -0.0487828 0.000238102 -0.000252075 4.54632
0.475 0.015 -0.0489558 0.000198311 -0.000253168 4.55449
0.48 0.015 -0.0490905 0.000157705 -0.000254059 4.55925
0.485 0.015 -0.0491864 0.000116369 -0.000254746 4.56056
0.49 0.015 -0.0492428 7.43917e-05 -0.000255224 4.55839
0.495 0.015 -0.0492594 3.18628e-05 -0.000255491 4.55274
0.5 0.015 -0.0492358 -1.11234e-05 -0.000255544 4.54358
0.505 0.015 -0.0491716 -5.44705e-05 -0.000255381 4.53092
0.51 0.015 -0.0490667 -9.80795e-05 -0.000255 4.51475
0.515 0.015 -0.048921 -0.000141849 -0.000254401 4.49509
0.52 0.015 -0.0487344 -0.000185677 -0.000253583 4.47196
0.525 0.015 -0.0485071 -0.000229458 -0.000252546 4.44538
0.53 0.015 -0.0482391 -0.000273087 -0.00025129 4.41538
0.535 0.015 -0.0479309 -0.000316457 -0.000249816 4.38201
0.54 0.015 -0.0475827 -0.000359461 -0.000248126 4.34531
0.545 0.015 -0.0471951 -0.000401992 -0.000246223 4.30534
0.55 0.015 -0.0467685 -0.000443944 -0.000244108 4.26216
0.555 0.015 -0.0463037 -0.000485209 -0.000241785 4.21583
0.56 0.015 -0.0458013 -0.000525683 -0.000239257 4.16644
0.565 0.015 -0.0452623 -0.000565262 -0.000236529 4.11406
0.57 0.015 -0.0446875 -0.000603843 -0.000233606 4.05878
0.575 0.015 -0.0440779 -0.000641329 -0.000230492 4.0007
0.58 0.015 -0.0434348 -0.00067762 -0.000227194 3.93992
0.585 0.015 -0.0427591 -0.000712625 -0.000223717 3.87655
0.59 0.015 -0.0420523 -0.000746252 -0.000220069 3.81069
0.595 0.015 -0.0413157 -0.000778415 -0.000216256 3.74247
0.6 0.015 -0.0405506 -0.000809033 -0.000212286 3.672
0.605 0.015 -0.0397585 -0.000838028 -0.000208167 3.59941
0.61 0.015 -0.038941 -0.000865329 -0.000203907 3.52483
0.615 0.015 -0.0380997 -0.000890868 -0.000199515 3.4484
0.62 0.015 -0.0372363 -0.000914585 -0.000194999 3.37026
0.625 0.015 -0.0363524 -0.000936426 -0.00019037 3.29054
0.63 0.015 -0.0354498 -0.000956342 -0.000185636 3.20939
0.635 0.015 -0.0345304 -0.00097429 -0.000180808 3.12695
0.64 0.015 -0.0335958 -0.000990238 -0.000175895 3.04337
0.645 0.015 -0.0326479 -0.00100416 -0.000170907 2.95881
0.65 0.015 -0.0316887 -0.00101602 -0.000165854 2.8734
0.655 0.015 -0.03072 -0.00102583 -0.000160747 2.78731
0.66 0.015 -0.0297436 -0.00103356 -0.000155597 2.70068
0.665 0.015 -0.0287616 -0.00103923 -0.000150413 2.61366
0.67 0.015 -0.0277756 -0.00104284 -0.000145205 2.5264
0.675 0.015 -0.0267876 -0.00104441 -0.000139985 2.43906
0.68 0.015 -0.0257995 -0.00104395 -0.000134762 2.35177
0.685 0.015 -0.0248131 -0.00104151 -0.000129546 2.26469
0.69 0.015 -0.0238302 -0.00103711 -0.000124348 2.17795
0.695 0.015 -0.0228524 -0.00103081 -0.000119176 2.0917
0.7 0.015 -0.0218816 -0.00102264 -0.000114041 2.00606
0.705 0.015 -0.0209194 -0.00101268 -0.00010895 1.92119
0.71 0.015 -0.0199674 -0.00100098 -0.000103914 1.83719
0.715 0.015 -0.0190272 -0.000987601 -9.89413e-05 1.75421
0.72 0.015 -0.0181002 -0.000972626 -9.4039e-05 1.67235
0.725 0.015 -0.0171879 -0.000956129 -8.92155e-05 1.59174
0.73 0.015 -0.0162916 -0.000938191 -8.44782e-05 1.51248
0.735 0.015 -0.0154127 -0.000918897 -7.98341e-05 1.43467
0.74 0.015 -0.0145523 -0.000898335 -7.52897e-05 1.35843
0.745 0.015 -0.0137115 -0.000876596 -7.08512e-05 1.28383
0.75 0.015 -0.0128915 -0.000853772 -6.65241e-05 1.21097
0.755 0.015 -0.0120931 -0.00082996 -6.23138e-05 1.13992
0.76 0.015 -0.0113172 -0.000805253 -5.82248e-05 1.07077
0.765 0.015 -0.0105646 -0.00077975 -5.42615e-05 1.00357
0.77 0.015 -0.00983605 -0.000753545 -5.04276e-05 0.938394
0.775 0.015 -0.00913214 -0.000726736 -4.67263e-05 0.875291
0.78 0.015 -0.00845339 -0.000699419 -4.31604e-05 0.814308
0.785 0.015 -0.00780025 -0.000671686 -3.97323e-05 0.755489
0.79 0.015 -0.00717308 -0.000643631 -3.64437e-05 0.698866
0.795 0.015 -0.00657215 -0.000615343 -3.32961e-05 0.644469
0.8 0.015 -0.00599767 -0.000586912 -3.02903e-05 0.59232
0.805 0.015 -0.00544975 -0.000558421 -2.7427e-05 0.542433
0.81 0.015 -0.00492843 -0.000529952 -2.47062e-05 0.494819
0.815 0.015 -0.00443368 -0.000501583 -2.21275e-05 0.449481
0.82 0.015 -0.0039654 -0.00047339 -1.96903e-05 0.406416
0.825 0.015 -0.00352342 -0.000445442 -1.73936e-05 0.365617
0.83 0.015 -0.00310751 -0.000417805 -1.52359e-05 0.327071