Title=" Lid Driven Flow"
VARIABLES="X","Y","U","V","psi","xi"
ZONE T= "BOX", I= 201, J=201, F=POINT
0 0 0 0 0.00160573 0
0.005 0 0 0 0 0
0.01 0 0 0 0 0
0.015 0 0 0 0 161.89
0.02 0 0 0 0 176.128
0.025 0 0 0 0 155.624
0.03 0 0 0 0 133.254
0.035 0 0 0 0 115.757
0.04 0 0 0 0 102.923
0.045 0 0 0 0 93.4056
0.05 0 0 0 0 86.0918
0.055 0 0 0 0 80.2482
0.06 0 0 0 0 75.4158
0.065 0 0 0 0 71.3061
0.07 0 0 0 0 67.7321
0.075 0 0 0 0 64.5681
0.08 0 0 0 0 61.7267
0.085 0 0 0 0 59.1454
0.09 0 0 0 0 56.7784
0.095 0 0 0 0 54.5915
0.1 0 0 0 0 52.5585
0.105 0 0 0 0 50.6592
0.11 0 0 0 0 48.8777
0.115 0 0 0 0 47.2011
0.12 0 0 0 0 45.619
0.125 0 0 0 0 44.1227
0.13 0 0 0 0 42.7051
0.135 0 0 0 0 41.3598
0.14 0 0 0 0 40.0815
0.145 0 0 0 0 38.8653
0.15 0 0 0 0 37.707
0.155 0 0 0 0 36.6028
0.16 0 0 0 0 35.5492
0.165 0 0 0 0 34.5429
0.17 0 0 0 0 33.581
0.175 0 0 0 0 32.6606
0.18 0 0 0 0 31.7792
0.185 0 0 0 0 30.9343
0.19 0 0 0 0 30.1236
0.195 0 0 0 0 29.3449
0.2 0 0 0 0 28.5961
0.205 0 0 0 0 27.8754
0.21 0 0 0 0 27.1808
0.215 0 0 0 0 26.5106
0.22 0 0 0 0 25.8631
0.225 0 0 0 0 25.2368
0.23 0 0 0 0 24.6302
0.235 0 0 0 0 24.0419
0.24 0 0 0 0 23.4706
0.245 0 0 0 0 22.915
0.25 0 0 0 0 22.374
0.255 0 0 0 0 21.8464
0.26 0 0 0 0 21.3312
0.265 0 0 0 0 20.8275
0.27 0 0 0 0 20.3343
0.275 0 0 0 0 19.8509
0.28 0 0 0 0 19.3764
0.285 0 0 0 0 18.9101
0.29 0 0 0 0 18.4514
0.295 0 0 0 0 17.9996
0.3 0 0 0 0 17.5542
0.305 0 0 0 0 17.1147
0.31 0 0 0 0 16.6806
0.315 0 0 0 0 16.2516
0.32 0 0 0 0 15.8272
0.325 0 0 0 0 15.4072
0.33 0 0 0 0 14.9912
0.335 0 0 0 0 14.5792
0.34 0 0 0 0 14.1708
0.345 0 0 0 0 13.7659
0.35 0 0 0 0 13.3645
0.355 0 0 0 0 12.9664
0.36 0 0 0 0 12.5716
0.365 0 0 0 0 12.1801
0.37 0 0 0 0 11.7919
0.375 0 0 0 0 11.4071
0.38 0 0 0 0 11.0258
0.385 0 0 0 0 10.648
0.39 0 0 0 0 10.2739
0.395 0 0 0 0 9.90366
0.4 0 0 0 0 9.53742
0.405 0 0 0 0 9.17536
0.41 0 0 0 0 8.8177
0.415 0 0 0 0 8.46464
0.42 0 0 0 0 8.11642
0.425 0 0 0 0 7.77324
0.43 0 0 0 0 7.43537
0.435 0 0 0 0 7.10303
0.44 0 0 0 0 6.77647
0.445 0 0 0 0 6.45593
0.45 0 0 0 0 6.14165
0.455 0 0 0 0 5.83385
0.46 0 0 0 0 5.53277
0.465 0 0 0 0 5.23862
0.47 0 0 0 0 4.9516
0.475 0 0 0 0 4.67191
0.48 0 0 0 0 4.39972
0.485 0 0 0 0 4.13519
0.49 0 0 0 0 3.87847
0.495 0 0 0 0 3.62968
0.5 0 0 0 0 3.38892
0.505 0 0 0 0 3.15629
0.51 0 0 0 0 2.93185
0.515 0 0 0 0 2.71564
0.52 0 0 0 0 2.50768
0.525 0 0 0 0 2.30797
0.53 0 0 0 0 2.11651
0.535 0 0 0 0 1.93323
0.54 0 0 0 0 1.7581
0.545 0 0 0 0 1.59101
0.55 0 0 0 0 1.43189
0.555 0 0 0 0 1.2806
0.56 0 0 0 0 1.13701
0.565 0 0 0 0 1.00099
0.57 0 0 0 0 0.872355
0.575 0 0 0 0 0.750942
0.58 0 0 0 0 0.636559
0.585 0 0 0 0 0.529008
0.59 0 0 0 0 0.428083
0.595 0 0 0 0 0.333569
0.6 0 0 0 0 0.245244
0.605 0 0 0 0 0.162885
0.61 0 0 0 0 0.0862594
0.615 0 0 0 0 0.0151367
0.62 0 0 0 0 -0.0507171
0.625 0 0 0 0 -0.111536
0.63 0 0 0 0 -0.167554
0.635 0 0 0 0 -0.219004
0.64 0 0 0 0 -0.266114
0.645 0 0 0 0 -0.309114
0.65 0 0 0 0 -0.348226
0.655 0 0 0 0 -0.383671
0.66 0 0 0 0 -0.415665
0.665 0 0 0 0 -0.444417
0.67 0 0 0 0 -0.470133
0.675 0 0 0 0 -0.493011
0.68 0 0 0 0 -0.513246
0.685 0 0 0 0 -0.531022
0.69 0 0 0 0 -0.546519
0.695 0 0 0 0 -0.559908
0.7 0 0 0 0 -0.571354
0.705 0 0 0 0 -0.58101
0.71 0 0 0 0 -0.589025
0.715 0 0 0 0 -0.595534
0.72 0 0 0 0 -0.600668
0.725 0 0 0 0 -0.604544
0.73 0 0 0 0 -0.607271
0.735 0 0 0 0 -0.608949
0.74 0 0 0 0 -0.609666
0.745 0 0 0 0 -0.609502
0.75 0 0 0 0 -0.608527
0.755 0 0 0 0 -0.606799
0.76 0 0 0 0 -0.604371
0.765 0 0 0 0 -0.601283
0.77 0 0 0 0 -0.597569
0.775 0 0 0 0 -0.593254
0.78 0 0 0 0 -0.588358
0.785 0 0 0 0 -0.582892
0.79 0 0 0 0 -0.576862
0.795 0 0 0 0 -0.570269
0.8 0 0 0 0 -0.563109
0.805 0 0 0 0 -0.555378
0.81 0 0 0 0 -0.547064
0.815 0 0 0 0 -0.538158
0.82 0 0 0 0 -0.528646
0.825 0 0 0 0 -0.518518
0.83 0 0 0 0 -0.50776
0.835 0 0 0 0 -0.496363
0.84 0 0 0 0 -0.484318
0.845 0 0 0 0 -0.47162
0.85 0 0 0 0 -0.458264
0.855 0 0 0 0 -0.444253
0.86 0 0 0 0 -0.429591
0.865 0 0 0 0 -0.414289
0.87 0 0 0 0 -0.398363
0.875 0 0 0 0 -0.381832
0.88 0 0 0 0 -0.364725
0.885 0 0 0 0 -0.347076
0.89 0 0 0 0 -0.328925
0.895 0 0 0 0 -0.310319
0.9 0 0 0 0 -0.291315
0.905 0 0 0 0 -0.271975
0.91 0 0 0 0 -0.252371
0.915 0 0 0 0 -0.232583
0.92 0 0 0 0 -0.212701
0.925 0 0 0 0 -0.192822
0.93 0 0 0 0 -0.173056
0.935 0 0 0 0 -0.15352
0.94 0 0 0 0 -0.134347
0.945 0 0 0 0 -0.115676
0.95 0 0 0 0 -0.0976649
0.955 0 0 0 0 -0.0804807
0.96 0 0 0 0 -0.0643074
0.965 0 0 0 0 -0.049344
0.97 0 0 0 0 -0.0358055
0.975 0 0 0 0 -0.0239219
0.98 0 0 0 0 -0.0139346
0.985 0 0 0 0 -0.00608661
0.99 0 0 0 0 -0.00059827
0.995 0 0 0 0 0.00238864
1 0 0 0 0 0.00293877
0 0.005 0 0 0 0
0.005 0.005 0 0 0 0
0.01 0.005 0 0 0 73.7261
0.015 0.005 0 0 0 62.0177
0.02 0.005 0 0 0 45.6037
0.025 0.005 0 0 0 33.799
0.03 0.005 0 0 0 25.9109
0.035 0.005 0 0 0 20.5365
0.04 0.005 0 0 0 16.7221
0.045 0.005 0 0 0 13.903
0.05 0.005 0 0 0 11.7475
0.055 0.005 0 0 0 10.0553
0.06 0.005 0 0 0 8.69962
0.065 0.005 0 0 0 7.59667
0.07 0.005 0 0 0 6.68858
0.075 0.005 0 0 0 5.93395
0.08 0.005 0 0 0 5.30221
0.085 0.005 0 0 0 4.77025
0.09 0.005 0 0 0 4.32023
0.095 0.005 0 0 0 3.9381
0.1 0.005 0 0 0 3.61271
0.105 0.005 0 0 0 3.33505
0.11 0.005 0 0 0 3.0978
0.115 0.005 0 0 0 2.89496
0.12 0.005 0 0 0 2.72158
0.125 0.005 0 0 0 2.57353
0.13 0.005 0 0 0 2.44738
0.135 0.005 0 0 0 2.34024
0.14 0.005 0 0 0 2.24966
0.145 0.005 0 0 0 2.17358
0.15 0.005 0 0 0 2.11026
0.155 0.005 0 0 0 2.05818
0.16 0.005 0 0 0 2.01607
0.165 0.005 0 0 0 1.98282
0.17 0.005 0 0 0 1.95749
0.175 0.005 0 0 0 1.93923
0.18 0.005 0 0 0 1.92735
0.185 0.005 0 0 0 1.9212
0.19 0.005 0 0 0 1.92025
0.195 0.005 0 0 0 1.92402
0.2 0.005 0 0 0 1.93207
0.205 0.005 0 0 0 1.94403
0.21 0.005 0 0 0 1.95957
0.215 0.005 0 0 0 1.97838
0.22 0.005 0 0 0 2.00019
0.225 0.005 0 0 0 2.02475
0.23 0.005 0 0 0 2.05184
0.235 0.005 0 0 0 2.08126
0.24 0.005 0 0 0 2.1128
0.245 0.005 0 0 0 2.1463
0.25 0.005 0 0 0 2.18158
0.255 0.005 0 0 0 2.21848
0.26 0.005 0 0 0 2.25686
0.265 0.005 0 0 0 2.29657
0.27 0.005 0 0 0 2.33748
0.275 0.005 0 0 0 2.37944
0.28 0.005 0 0 0 2.42232
0.285 0.005 0 0 0 2.46601
0.29 0.005 0 0 0 2.51037
0.295 0.005 0 0 0 2.55527
0.3 0.005 0 0 0 2.6006
0.305 0.005 0 0 0 2.64624
0.31 0.005 0 0 0 2.69206
0.315 0.005 0 0 0 2.73794
0.32 0.005 0 0 0 2.78377
0.325 0.005 0 0 0 2.82942
0.33 0.005 0 0 0 2.87479
0.335 0.005 0 0 0 2.91974
0.34 0.005 0 0 0 2.96418
0.345 0.005 0 0 0 3.00797
0.35 0.005 0 0 0 3.05101
0.355 0.005 0 0 0 3.09318
0.36 0.005 0 0 0 3.13437
0.365 0.005 0 0 0 3.17447
0.37 0.005 0 0 0 3.21338
0.375 0.005 0 0 0 3.25098
0.38 0.005 0 0 0 3.28717
0.385 0.005 0 0 0 3.32184
0.39 0.005 0 0 0 3.35491
0.395 0.005 0 0 0 3.38627
0.4 0.005 0 0 0 3.41583
0.405 0.005 0 0 0 3.44351
0.41 0.005 0 0 0 3.4692
0.415 0.005 0 0 0 3.49284
0.42 0.005 0 0 0 3.51435
0.425 0.005 0 0 0 3.53365
0.43 0.005 0 0 0 3.55068
0.435 0.005 0 0 0 3.56537
0.44 0.005 0 0 0 3.57766
0.445 0.005 0 0 0 3.58752
0.45 0.005 0 0 0 3.59488
0.455 0.005 0 0 0 3.59971
0.46 0.005 0 0 0 3.60197
0.465 0.005 0 0 0 3.60165
0.47 0.005 0 0 0 3.59871
0.475 0.005 0 0 0 3.59314
0.48 0.005 0 0 0 3.58493
0.485 0.005 0 0 0 3.57409
0.49 0.005 0 0 0 3.56061
0.495 0.005 0 0 0 3.54451
0.5 0.005 0 0 0 3.52581
0.505 0.005 0 0 0 3.50452
0.51 0.005 0 0 0 3.48069
0.515 0.005 0 0 0 3.45434
0.52 0.005 0 0 0 3.42553
0.525 0.005 0 0 0 3.3943
0.53 0.005 0 0 0 3.36071
0.535 0.005 0 0 0 3.32481
0.54 0.005 0 0 0 3.28668
0.545 0.005 0 0 0 3.24638
0.55 0.005 0 0 0 3.204
0.555 0.005 0 0 0 3.15961
0.56 0.005 0 0 0 3.1133
0.565 0.005 0 0 0 3.06516
0.57 0.005 0 0 0 3.01528
0.575 0.005 0 0 0 2.96376
0.58 0.005 0 0 0 2.9107
0.585 0.005 0 0 0 2.8562
0.59 0.005 0 0 0 2.80036
0.595 0.005 0 0 0 2.74329
0.6 0.005 0 0 0 2.68509
0.605 0.005 0 0 0 2.62589
0.61 0.005 0 0 0 2.56577
0.615 0.005 0 0 0 2.50486
0.62 0.005 0 0 0 2.44326
0.625 0.005 0 0 0 2.38108
0.63 0.005 0 0 0 2.31843
0.635 0.005 0 0 0 2.25542
0.64 0.005 0 0 0 2.19214
0.645 0.005 0 0 0 2.12871
0.65 0.005 0 0 0 2.06522
0.655 0.005 0 0 0 2.00177
0.66 0.005 0 0 0 1.93846
0.665 0.005 0 0 0 1.87538
0.67 0.005 0 0 0 1.81262
0.675 0.005 0 0 0 1.75027
0.68 0.005 0 0 0 1.68841
0.685 0.005 0 0 0 1.62711
0.69 0.005 0 0 0 1.56646
0.695 0.005 0 0 0 1.50653
0.7 0.005 0 0 0 1.44738
0.705 0.005 0 0 0 1.38907
0.71 0.005 0 0 0 1.33168
0.715 0.005 0 0 0 1.27524
0.72 0.005 0 0 0 1.21982
0.725 0.005 0 0 0 1.16545
0.73 0.005 0 0 0 1.11219
0.735 0.005 0 0 0 1.06007
0.74 0.005 0 0 0 1.00912
0.745 0.005 0 0 0 0.959379
0.75 0.005 0 0 0 0.910874
0.755 0.005 0 0 0 0.863628
0.76 0.005 0 0 0 0.817659
0.765 0.005 0 0 0 0.772985
0.77 0.005 0 0 0 0.729621
0.775 0.005 0 0 0 0.687575
0.78 0.005 0 0 0 0.646856
0.785 0.005 0 0 0 0.607469
0.79 0.005 0 0 0 0.569416
0.795 0.005 0 0 0 0.532696
0.8 0.005 0 0 0 0.497307
0.805 0.005 0 0 0 0.463245
0.81 0.005 0 0 0 0.430502
0.815 0.005 0 0 0 0.399071
0.82 0.005 0 0 0 0.368941
0.825 0.005 0 0 0 0.340101
0.83 0.005 0 0 0 0.312538
0.835 0.005 0 0 0 0.286238
0.84 0.005 0 0 0 0.261186
0.845 0.005 0 0 0 0.237367
0.85 0.005 0 0 0 0.214763
0.855 0.005 0 0 0 0.193358
0.86 0.005 0 0 0 0.173134
0.865 0.005 0 0 0 0.154072
0.87 0.005 0 0 0 0.136155
0.875 0.005 0 0 0 0.119364
0.88 0.005 0 0 0 0.10368
0.885 0.005 0 0 0 0.0890842
0.89 0.005 0 0 0 0.0755583
0.895 0.005 0 0 0 0.0630835
0.9 0.005 0 0 0 0.0516415
0.905 0.005 0 0 0 0.041214
0.91 0.005 0 0 0 0.0317826
0.915 0.005 0 0 0 0.0233292
0.92 0.005 0 0 0 0.0158357
0.925 0.005 0 0 0 0.00928344
0.93 0.005 0 0 0 0.00365362
0.935 0.005 0 0 0 -0.00107352
0.94 0.005 0 0 0 -0.00491906
0.945 0.005 0 0 0 -0.00790614
0.95 0.005 0 0 0 -0.010061
0.955 0.005 0 0 0 -0.0114144
0.96 0.005 0 0 0 -0.0120038
0.965 0.005 0 0 0 -0.0118763
0.97 0.005 0 0 0 -0.011093
0.975 0.005 0 0 0 -0.00973566
0.98 0.005 0 0 0 -0.00791654
0.985 0.005 0 0 0 -0.00579317
0.99 0.005 0 0 0 -0.00358957
0.995 0.005 0 0 0 -0.00162124
1 0.005 0 0 0 -0.000299878
0 0.01 0 0 -0.000299878 0
0.005 0.01 0 0 0 -326.274
0.01 0.01 -0.179989 0.0775221 -0.000921576 -44.4478
0.015 0.01 -0.184628 -0.035153 -0.000775221 9.48083
0.02 0.01 -0.155956 -0.0352734 -0.000570046 19.0834
0.025 0.01 -0.127041 -0.024616 -0.000422487 18.9757
0.03 0.01 -0.103726 -0.0165781 -0.000323886 16.8362
0.035 0.01 -0.0857538 -0.011486 -0.000256706 14.5451
0.04 0.01 -0.071891 -0.00829188 -0.000209027 12.5318
0.045 0.01 -0.0610459 -0.00621831 -0.000173787 10.8472
0.05 0.01 -0.052419 -0.0048096 -0.000146844 9.45174
0.055 0.01 -0.0454502 -0.00380984 -0.000125691 8.29306
0.06 0.01 -0.0397467 -0.00307326 -0.000108745 7.32541
0.065 0.01 -0.0350285 -0.00251379 -9.49583e-05 6.51215
0.07 0.01 -0.0310913 -0.0020784 -8.36072e-05 5.82469
0.075 0.01 -0.0277829 -0.00173296 -7.41742e-05 5.24069
0.08 0.01 -0.0249871 -0.0014546 -6.62774e-05 4.74254
0.085 0.01 -0.0226137 -0.00122746 -5.9628e-05 4.31621
0.09 0.01 -0.0205916 -0.00104017 -5.40027e-05 3.95038
0.095 0.01 -0.0188639 -0.00088438 -4.92261e-05 3.63585
0.1 0.01 -0.0173847 -0.000753799 -4.51587e-05 3.36503
0.105 0.01 -0.0161162 -0.000643617 -4.16879e-05 3.13167
0.11 0.01 -0.0150278 -0.000550087 -3.87223e-05 2.93054
0.115 0.01 -0.0140937 -0.000470255 -3.61869e-05 2.75726
0.12 0.01 -0.0132926 -0.000401768 -3.40196e-05 2.60815
0.125 0.01 -0.0126067 -0.000342731 -3.2169e-05 2.48009
0.13 0.01 -0.0120207 -0.000291607 -3.05921e-05 2.37043
0.135 0.01 -0.0115221 -0.00024714 -2.92528e-05 2.27689
0.14 0.01 -0.0110999 -0.0002083 -2.81206e-05 2.19756
0.145 0.01 -0.0107449 -0.000174234 -2.71696e-05 2.13077
0.15 0.01 -0.0104493 -0.000144236 -2.63781e-05 2.07508
0.155 0.01 -0.0102061 -0.000117717 -2.57271e-05 2.02927
0.16 0.01 -0.0100097 -9.41821e-05 -2.52007e-05 1.99226
0.165 0.01 -0.00985495 -7.32182e-05 -2.47852e-05 1.96312
0.17 0.01 -0.00973743 -5.44762e-05 -2.44684e-05 1.94104
0.175 0.01 -0.00965336 -3.76615e-05 -2.42403e-05 1.9253
0.18 0.01 -0.00959941 -2.25247e-05 -2.40917e-05 1.9153
0.185 0.01 -0.00957267 -8.8542e-06 -2.40149e-05 1.91047
0.19 0.01 -0.00957057 3.52981e-06 -2.40031e-05 1.91034
0.195 0.01 -0.00959084 1.47803e-05 -2.40501e-05 1.91447
0.2 0.01 -0.00963147 2.50276e-05 -2.41508e-05 1.92248
0.205 0.01 -0.00969067 3.43826e-05 -2.43003e-05 1.93403
0.21 0.01 -0.00976684 4.29401e-05 -2.44945e-05 1.94881
0.215 0.01 -0.00985854 5.07807e-05 -2.47296e-05 1.96654
0.22 0.01 -0.00996445 5.79729e-05 -2.50023e-05 1.98697
0.225 0.01 -0.0100834 6.45753e-05 -2.53093e-05 2.00988
0.23 0.01 -0.0102143 7.06375e-05 -2.5648e-05 2.03504
0.235 0.01 -0.0103561 7.62015e-05 -2.60157e-05 2.06226
0.24 0.01 -0.010508 8.1303e-05 -2.641e-05 2.09136
0.245 0.01 -0.0106689 8.59719e-05 -2.68287e-05 2.12217
0.25 0.01 -0.0108382 9.02335e-05 -2.72697e-05 2.15453
0.255 0.01 -0.0110151 9.41089e-05 -2.7731e-05 2.18829
0.26 0.01 -0.0111987 9.76157e-05 -2.82108e-05 2.2233
0.265 0.01 -0.0113885 0.000100769 -2.87072e-05 2.25942
0.27 0.01 -0.0115837 0.000103579 -2.92185e-05 2.29653
0.275 0.01 -0.0117836 0.000106058 -2.9743e-05 2.33448
0.28 0.01 -0.0119877 0.000108213 -3.02791e-05 2.37317
0.285 0.01 -0.0121953 0.000110049 -3.08252e-05 2.41245
0.29 0.01 -0.0124058 0.000111574 -3.13797e-05 2.45223
0.295 0.01 -0.0126186 0.00011279 -3.1941e-05 2.49237
0.3 0.01 -0.012833 0.000113701 -3.25076e-05 2.53276
0.305 0.01 -0.0130486 0.000114309 -3.30781e-05 2.57328
0.31 0.01 -0.0132647 0.000114618 -3.36508e-05 2.61384
0.315 0.01 -0.0134807 0.000114628 -3.42244e-05 2.65431
0.32 0.01 -0.0136961 0.000114342 -3.47972e-05 2.69458
0.325 0.01 -0.0139103 0.000113761 -3.53679e-05 2.73455
0.33 0.01 -0.0141228 0.000112886 -3.5935e-05 2.77411
0.335 0.01 -0.0143329 0.00011172 -3.64969e-05 2.81316
0.34 0.01 -0.0145402 0.000110264 -3.70524e-05 2.85158
0.345 0.01 -0.0147441 0.000108522 -3.75998e-05 2.88928
0.35 0.01 -0.014944 0.000106494 -3.81378e-05 2.92616
0.355 0.01 -0.0151395 0.000104185 -3.86649e-05 2.96211
0.36 0.01 -0.0153299 0.000101598 -3.91798e-05 2.99704
0.365 0.01 -0.0155148 9.87376e-05 -3.96811e-05 3.03086
0.37 0.01 -0.0156937 9.56075e-05 -4.01674e-05 3.06346
0.375 0.01 -0.0158661 9.22135e-05 -4.06374e-05 3.09476
0.38 0.01 -0.0160315 8.85613e-05 -4.10898e-05 3.12467
0.385 0.01 -0.0161894 8.46575e-05 -4.15233e-05 3.1531
0.39 0.01 -0.0163394 8.05094e-05 -4.19367e-05 3.17997
0.395 0.01 -0.016481 7.61246e-05 -4.23287e-05 3.20521
0.4 0.01 -0.0166138 7.15119e-05 -4.26982e-05 3.22873
0.405 0.01 -0.0167374 6.66804e-05 -4.30441e-05 3.25047
0.41 0.01 -0.0168515 6.16401e-05 -4.33654e-05 3.27034
0.415 0.01 -0.0169556 5.64015e-05 -4.36609e-05 3.2883
0.42 0.01 -0.0170494 5.09759e-05 -4.39297e-05 3.30428
0.425 0.01 -0.0171326 4.53752e-05 -4.4171e-05 3.31822
0.43 0.01 -0.0172048 3.96118e-05 -4.43838e-05 3.33008
0.435 0.01 -0.0172659 3.36988e-05 -4.45675e-05 3.3398
0.44 0.01 -0.0173156 2.76499e-05 -4.47212e-05 3.34734
0.445 0.01 -0.0173536 2.14791e-05 -4.48443e-05 3.35267
0.45 0.01 -0.0173798 1.52011e-05 -4.49364e-05 3.35576
0.455 0.01 -0.017394 8.83087e-06 -4.49967e-05 3.35658
0.46 0.01 -0.017396 2.3838e-06 -4.50251e-05 3.35511
0.465 0.01 -0.0173857 -4.12438e-06 -4.5021e-05 3.35133
0.47 0.01 -0.0173632 -1.06777e-05 -4.49842e-05 3.34523
0.475 0.01 -0.0173282 -1.72598e-05 -4.49146e-05 3.33681
0.48 0.01 -0.0172809 -2.38546e-05 -4.48121e-05 3.32607
0.485 0.01 -0.0172211 -3.04454e-05 -4.46765e-05 3.31302
0.49 0.01 -0.017149 -3.70158e-05 -4.45081e-05 3.29767
0.495 0.01 -0.0170646 -4.35493e-05 -4.43068e-05 3.28003
0.5 0.01 -0.0169681 -5.00297e-05 -4.4073e-05 3.26013
0.505 0.01 -0.0168595 -5.64406e-05 -4.3807e-05 3.23799
0.51 0.01 -0.0167391 -6.27662e-05 -4.3509e-05 3.21366
0.515 0.01 -0.0166069 -6.89907e-05 -4.31797e-05 3.18717
0.52 0.01 -0.0164633 -7.5099e-05 -4.28196e-05 3.15855
0.525 0.01 -0.0163084 -8.1076e-05 -4.24292e-05 3.12787
0.53 0.01 -0.0161426 -8.69073e-05 -4.20093e-05 3.09517
0.535 0.01 -0.0159662 -9.25792e-05 -4.15606e-05 3.06051
0.54 0.01 -0.0157793 -9.80784e-05 -4.10839e-05 3.02396
0.545 0.01 -0.0155825 -0.000103392 -4.05802e-05 2.98557
0.55 0.01 -0.0153761 -0.000108509 -4.00504e-05 2.94542
0.555 0.01 -0.0151604 -0.000113417 -3.94956e-05 2.90358
0.56 0.01 -0.0149359 -0.000118106 -3.89167e-05 2.86013
0.565 0.01 -0.014703 -0.000122567 -3.83149e-05 2.81514
0.57 0.01 -0.0144621 -0.000126791 -3.76914e-05 2.7687
0.575 0.01 -0.0142136 -0.00013077 -3.70474e-05 2.72089
0.58 0.01 -0.0139581 -0.000134498 -3.63841e-05 2.6718
0.585 0.01 -0.013696 -0.000137968 -3.57029e-05 2.62152
0.59 0.01 -0.0134278 -0.000141176 -3.50049e-05 2.57014
0.595 0.01 -0.013154 -0.000144118 -3.42915e-05 2.51774
0.6 0.01 -0.0128751 -0.00014679 -3.35641e-05 2.46442
0.605 0.01 -0.0125916 -0.00014919 -3.28239e-05 2.41027
0.61 0.01 -0.012304 -0.000151318 -3.20725e-05 2.35539
0.615 0.01 -0.0120127 -0.000153174 -3.13111e-05 2.29987
0.62 0.01 -0.0117184 -0.000154757 -3.05411e-05 2.2438
0.625 0.01 -0.0114215 -0.00015607 -2.97639e-05 2.18727
0.63 0.01 -0.0111225 -0.000157116 -2.89807e-05 2.13038
0.635 0.01 -0.0108219 -0.000157897 -2.8193e-05 2.07321
0.64 0.01 -0.0105202 -0.000158419 -2.74021e-05 2.01585
0.645 0.01 -0.0102178 -0.000158685 -2.66091e-05 1.95839
0.65 0.01 -0.00991531 -0.000158702 -2.58155e-05 1.90091
0.655 0.01 -0.00961305 -0.000158476 -2.50224e-05 1.84351
0.66 0.01 -0.00931151 -0.000158014 -2.4231e-05 1.78625
0.665 0.01 -0.00901112 -0.000157324 -2.34425e-05 1.72922
0.67 0.01 -0.00871229 -0.000156414 -2.2658e-05 1.67249
0.675 0.01 -0.00841543 -0.000155292 -2.18786e-05 1.61614
0.68 0.01 -0.0081209 -0.000153968 -2.11053e-05 1.56023
0.685 0.01 -0.00782909 -0.00015245 -2.03391e-05 1.50484
0.69 0.01 -0.00754033 -0.000150749 -1.9581e-05 1.45002
0.695 0.01 -0.00725495 -0.000148874 -1.88318e-05 1.39584
0.7 0.01 -0.00697328 -0.000146836 -1.80924e-05 1.34235
0.705 0.01 -0.0066956 -0.000144644 -1.73636e-05 1.28961
0.71 0.01 -0.00642219 -0.000142309 -1.66461e-05 1.23767
0.715 0.01 -0.0061533 -0.000139842 -1.59406e-05 1.18658
0.72 0.01 -0.00588917 -0.000137252 -1.52478e-05 1.13638
0.725 0.01 -0.00563003 -0.000134549 -1.45683e-05 1.08711
0.73 0.01 -0.00537606 -0.000131744 -1.39025e-05 1.0388
0.735 0.01 -0.00512745 -0.000128847 -1.32509e-05 0.991499
0.74 0.01 -0.00488437 -0.000125868 -1.26141e-05 0.945229
0.745 0.01 -0.00464696 -0.000122815 -1.19923e-05 0.900019
0.75 0.01 -0.00441535 -0.000119699 -1.1386e-05 0.855893
0.755 0.01 -0.00418966 -0.000116528 -1.07954e-05 0.812872
0.76 0.01 -0.00396997 -0.00011331 -1.02208e-05 0.770975
0.765 0.01 -0.00375638 -0.000110054 -9.66238e-06 0.730217
0.77 0.01 -0.00354893 -0.000106769 -9.12031e-06 0.690611
0.775 0.01 -0.0033477 -0.000103461 -8.59474e-06 0.652167
0.78 0.01 -0.00315271 -0.000100137 -8.08575e-06 0.614894
0.785 0.01 -0.002964 -9.68047e-05 -7.5934e-06 0.578796
0.79 0.01 -0.00278157 -9.347e-05 -7.11773e-06 0.543877
0.795 0.01 -0.00260543 -9.01388e-05 -6.65873e-06 0.510139
0.8 0.01 -0.00243556 -8.68167e-05 -6.21636e-06 0.477579
0.805 0.01 -0.00227196 -8.35086e-05 -5.79058e-06 0.446197
0.81 0.01 -0.00211458 -8.02193e-05 -5.38129e-06 0.415987
0.815 0.01 -0.00196341 -7.6953e-05 -4.98839e-06 0.386944
0.82 0.01 -0.00181839 -7.37135e-05 -4.61177e-06 0.35906
0.825 0.01 -0.00167947 -7.05045e-05 -4.25126e-06 0.332327
0.83 0.01 -0.0015466 -6.73289e-05 -3.90672e-06 0.306736
0.835 0.01 -0.00141972 -6.41894e-05 -3.57797e-06 0.282275
0.84 0.01 -0.00129876 -6.10885e-05 -3.26482e-06 0.258933
0.845 0.01 -0.00118364 -5.80281e-05 -2.96708e-06 0.236698
0.85 0.01 -0.0010743 -5.501e-05 -2.68453e-06 0.215556
0.855 0.01 -0.000970651 -5.20356e-05 -2.41697e-06 0.195494
0.86 0.01 -0.00087262 -4.9106e-05 -2.16416e-06 0.176496
0.865 0.01 -0.000780121 -4.6222e-05 -1.92589e-06 0.158549
0.87 0.01 -0.000693072 -4.33842e-05 -1.70193e-06 0.141637
0.875 0.01 -0.000611387 -4.0593e-05 -1.49204e-06 0.125745
0.88 0.01 -0.00053498 -3.78485e-05 -1.29598e-06 0.110857
0.885 0.01 -0.000463765 -3.51507e-05 -1.11354e-06 0.0969575
0.89 0.01 -0.000397655 -3.24994e-05 -9.44464e-07 0.08403
0.895 0.01 -0.000336562 -2.98945e-05 -7.8853e-07 0.0720586
0.9 0.01 -0.000280401 -2.73355e-05 -6.45505e-07 0.061027
0.905 0.01 -0.000229084 -2.48223e-05 -5.15161e-07 0.0509186
0.91 0.01 -0.000182524 -2.23545e-05 -3.97269e-07 0.0417168
0.915 0.01 -0.000140633 -1.99323e-05 -2.91603e-07 0.0334044
0.92 0.01 -0.00010332 -1.7556e-05 -1.97934e-07 0.0259638
0.925 0.01 -7.04958e-05 -1.52264e-05 -1.16032e-07 0.0193767
0.93 0.01 -4.20636e-05 -1.29451e-05 -4.566e-08 0.0136237
0.935 0.01 -1.79229e-05 -1.07148e-05 1.34283e-08 0.00868392
0.94 0.01 2.03519e-06 -8.53985e-06 6.14966e-08 0.0045346
0.945 0.01 1.79314e-05 -6.42659e-06 9.88342e-08 0.00115003
0.95 0.01 2.99032e-05 -4.38462e-06 1.25769e-07 -0.00149928
0.955 0.01 3.81118e-05 -2.42791e-06 1.42686e-07 -0.00344804
0.96 0.01 4.27512e-05 -5.76825e-07 1.50053e-07 -0.00473801
0.965 0.01 4.40621e-05 1.13899e-06 1.48458e-07 -0.00542049
0.97 0.01 4.23491e-05 2.67618e-06 1.38665e-07 -0.00555955
0.975 0.01 3.80068e-05 3.97084e-06 1.21698e-07 -0.00523615
0.98 0.01 3.1554e-05 4.92829e-06 9.89579e-08 -0.00455294
0.985 0.01 2.36798e-05 5.40883e-06 7.24152e-08 -0.00363866
0.99 0.01 1.52988e-05 5.21498e-06 4.48697e-08 -0.00264763
0.995 0.01 7.59905e-06 4.11213e-06 2.02654e-08 -0.0017419
1 0.01 2.02238e-06 2.02654e-06 3.74839e-09 -0.00101983
0 0.015 0 0 -0.0016179 0
0.005 0.015 0 0 0 -256.009
0.01 0.015 -0.15272 0.184628 -0.00179989 -79.3166
0.015 0.015 -0.205879 -0.0240328 -0.00184628 -16.6577
0.02 0.015 -0.204052 -0.0575872 -0.00155956 2.3623
0.025 0.015 -0.184045 -0.0522303 -0.00127041 8.0243
0.03 0.015 -0.160782 -0.0412872 -0.00103726 9.38033
0.035 0.015 -0.139239 -0.0318348 -0.000857538 9.27269
0.04 0.015 -0.120653 -0.0247079 -0.00071891 8.67757
0.045 0.015 -0.104996 -0.019472 -0.000610459 7.95198
0.05 0.015 -0.0918851 -0.0155957 -0.00052419 7.22959
0.055 0.015 -0.0808936 -0.0126723 -0.000454501 6.55873
0.06 0.015 -0.0716439 -0.0104217 -0.000397466 5.95399
0.065 0.015 -0.0638252 -0.00865529 -0.000350284 5.41644
0.07 0.015 -0.0571874 -0.00724548 -0.000310913 4.94199
0.075 0.015 -0.0515302 -0.00610417 -0.000277829 4.52476
0.08 0.015 -0.0466927 -0.00516916 -0.000249871 4.1586
0.085 0.015 -0.0425446 -0.00439544 -0.000226137 3.83768
0.09 0.015 -0.0389798 -0.00374974 -0.000205916 3.55667
0.095 0.015 -0.0359111 -0.00320691 -0.000188639 3.3108
0.1 0.015 -0.0332663 -0.00274762 -0.000173846 3.0959
0.105 0.015 -0.0309855 -0.00235678 -0.000161162 2.90828
0.11 0.015 -0.0290184 -0.00202246 -0.000150277 2.74472
0.115 0.015 -0.027323 -0.00173509 -0.000140937 2.60243
0.12 0.015 -0.0258634 -0.00148698 -0.000132926 2.47894
0.125 0.015 -0.0246096 -0.00127184 -0.000126066 2.37212
0.13 0.015 -0.0235359 -0.00108452 -0.000120207 2.2801
0.135 0.015 -0.0226201 -0.000920785 -0.00011522 2.20124
0.14 0.015 -0.0218436 -0.000777111 -0.000110998 2.13412
0.145 0.015 -0.0211901 -0.000650571 -0.000107449 2.07748
0.15 0.015 -0.0206458 -0.000538714 -0.000104492 2.03022
0.155 0.015 -0.0201985 -0.000439484 -0.000102061 1.99138
0.16 0.015 -0.0198378 -0.00035115 -0.000100097 1.96011
0.165 0.015 -0.0195546 -0.000272247 -9.8549e-05 1.93566
0.17 0.015 -0.019341 -0.000201537 -9.73738e-05 1.91736
0.175 0.015 -0.01919 -0.000137968 -9.65332e-05 1.90462
0.18 0.015 -0.0190955 -8.06446e-05 -9.59937e-05 1.89693
0.185 0.015 -0.0190521 -2.88045e-05 -9.57263e-05 1.89381
0.19 0.015 -0.0190552 1.82034e-05 -9.57053e-05 1.89485
0.195 0.015 -0.0191004 6.09352e-05 -9.5908e-05 1.89968
0.2 0.015 -0.019184 9.98663e-05 -9.63144e-05 1.90795
0.205 0.015 -0.0193027 0.000135403 -9.69064e-05 1.91937
0.21 0.015 -0.0194533 0.000167894 -9.76682e-05 1.93366
0.215 0.015 -0.0196333 0.000197637 -9.85851e-05 1.95056
0.22 0.015 -0.01984 0.000224885 -9.96443e-05 1.96985
0.225 0.015 -0.0200712 0.000249856 -0.000100834 1.99131
0.23 0.015 -0.0203249 0.000272735 -0.000102143 2.01475
0.235 0.015 -0.020599 0.000293679 -0.000103561 2.03999
0.24 0.015 -0.0208919 0.000312824 -0.000105079 2.06685
0.245 0.015 -0.0212017 0.000330281 -0.000106689 2.09517
0.25 0.015 -0.021527 0.000346148 -0.000108382 2.12481
0.255 0.015 -0.0218662 0.000360505 -0.000110151 2.15561
0.26 0.015 -0.0222178 0.000373419 -0.000111987 2.18744
0.265 0.015 -0.0225806 0.000384949 -0.000113885 2.22017
0.27 0.015 -0.0229531 0.00039514 -0.000115837 2.25367
0.275 0.015 -0.0233341 0.000404033 -0.000117837 2.28782
0.28 0.015 -0.0237224 0.000411661 -0.000119878 2.3225
0.285 0.015 -0.0241168 0.000418049 -0.000121953 2.35759
0.29 0.015 -0.0245159 0.000423221 -0.000124058 2.39298
0.295 0.015 -0.0249188 0.000427195 -0.000126186 2.42857
0.3 0.015 -0.0253241 0.000429986 -0.000128331 2.46424
0.305 0.015 -0.0257308 0.000431608 -0.000130486 2.49988
0.31 0.015 -0.0261378 0.000432072 -0.000132647 2.5354
0.315 0.015 -0.026544 0.000431389 -0.000134807 2.57069
0.32 0.015 -0.0269482 0.000429568 -0.000136962 2.60565
0.325 0.015 -0.0273494 0.000426618 -0.000139104 2.64019
0.33 0.015 -0.0277465 0.00042255 -0.000141228 2.6742
0.335 0.015 -0.0281385 0.000417373 -0.00014333 2.70759
0.34 0.015 -0.0285242 0.000411099 -0.000145403 2.74028
0.345 0.015 -0.0289028 0.00040374 -0.000147442 2.77216
0.35 0.015 -0.0292731 0.000395308 -0.000149441 2.80316
0.355 0.015 -0.0296341 0.00038582 -0.000151396 2.83318
0.36 0.015 -0.0299849 0.000375291 -0.0001533 2.86214
0.365 0.015 -0.0303246 0.000363741 -0.000155149 2.88996
0.37 0.015 -0.0306522 0.000351191 -0.000156938 2.91656
0.375 0.015 -0.0309667 0.000337663 -0.000158662 2.94187
0.38 0.015 -0.0312673 0.000323183 -0.000160316 2.96581
0.385 0.015 -0.0315531 0.000307778 -0.000161895 2.98831
0.39 0.015 -0.0318233 0.000291478 -0.000163395 3.00931
0.395 0.015 -0.0320772 0.000274315 -0.000164811 3.02873
0.4 0.015 -0.0323138 0.000256325 -0.000166139 3.04654
0.405 0.015 -0.0325326 0.000237545 -0.000167376 3.06265
0.41 0.015 -0.0327327 0.000218013 -0.000168516 3.07704
0.415 0.015 -0.0329137 0.000197772 -0.000169557 3.08963
0.42 0.015 -0.0330748 0.000176866 -0.000170495 3.1004
0.425 0.015 -0.0332154 0.000155341 -0.000171327 3.1093
0.43 0.015 -0.0333352 0.000133246 -0.00017205 3.11629
0.435 0.015 -0.0334336 0.00011063 -0.000172661 3.12135
0.44 0.015 -0.0335101 8.75456e-05 -0.000173158 3.12444
0.445 0.015 -0.0335645 6.40467e-05 -0.000173538 3.12554
0.45 0.015 -0.0335964 4.01885e-05 -0.0001738 3.12464
0.455 0.015 -0.0336055 1.60275e-05 -0.000173941 3.12173
0.46 0.015 -0.0335916 -8.37858e-06 -0.000173961 3.11678
0.465 0.015 -0.0335545 -3.2971e-05 -0.000173859 3.1098
0.47 0.015 -0.0334943 -5.76902e-05 -0.000173633 3.10079
0.475 0.015 -0.0334107 -8.24762e-05 -0.000173284 3.08975
0.48 0.015 -0.0333039 -0.000107269 -0.00017281 3.07669
0.485 0.015 -0.0331738 -0.000132007 -0.000172213 3.06163
0.49 0.015 -0.0330206 -0.00015663 -0.000171492 3.04459
0.495 0.015 -0.0328445 -0.000181079 -0.000170648 3.02558
0.5 0.015 -0.0326457 -0.000205294 -0.000169683 3.00463
0.505 0.015 -0.0324244 -0.000229215 -0.000168597 2.98178
0.51 0.015 -0.0321811 -0.000252786 -0.000167392 2.95706
0.515 0.015 -0.031916 -0.000275948 -0.000166071 2.93051
0.52 0.015 -0.0316297 -0.000298648 -0.000164635 2.90217
0.525 0.015 -0.0313226 -0.000320833 -0.000163086 2.87209
0.53 0.015 -0.0309953 -0.000342449 -0.000161428 2.84032
0.535 0.015 -0.0306483 -0.000363448 -0.000159663 2.80691
0.54 0.015 -0.0302822 -0.000383783 -0.000157795 2.77193
0.545 0.015 -0.0298976 -0.000403408 -0.000155827 2.73542
0.55 0.015 -0.0294954 -0.000422282 -0.000153763 2.69745
0.555 0.015 -0.0290762 -0.000440366 -0.000151606 2.6581
0.56 0.015 -0.0286408 -0.000457622 -0.000149361 2.61741
0.565 0.015 -0.02819 -0.000474018 -0.000147031 2.57547
0.57 0.015 -0.0277246 -0.000489524 -0.000144622 2.53234
0.575 0.015 -0.0272455 -0.000504111 -0.000142138 2.48811
0.58 0.015 -0.0267534 -0.000517758 -0.000139583 2.44283
0.585 0.015 -0.0262494 -0.000530443 -0.000136962 2.39659
0.59 0.015 -0.0257343 -0.00054215 -0.00013428 2.34946
0.595 0.015 -0.025209 -0.000552866 -0.000131542 2.30153
0.6 0.015 -0.0246745 -0.00056258 -0.000128752 2.25286
0.605 0.015 -0.0241317 -0.000571287 -0.000125917 2.20354
0.61 0.015 -0.0235815 -0.000578983 -0.000123041 2.15365
0.615 0.015 -0.0230248 -0.00058567 -0.000120129 2.10325
0.62 0.015 -0.0224626 -0.00059135 -0.000117186 2.05244
0.625 0.015 -0.0218959 -0.000596031 -0.000114216 2.00128
0.63 0.015 -0.0213254 -0.000599723 -0.000111226 1.94985
0.635 0.015 -0.0207522 -0.000602439 -0.00010822 1.89823
0.64 0.015 -0.0201772 -0.000604195 -0.000105203 1.84649
0.645 0.015 -0.0196011 -0.00060501 -0.00010218 1.7947
0.65 0.015 -0.0190249 -0.000604905 -9.91542e-05 1.74294
0.655 0.015 -0.0184493 -0.000603903 -9.61315e-05 1.69126
0.66 0.015 -0.0178753 -0.000602031 -9.31161e-05 1.63975
0.665 0.015 -0.0173036 -0.000599317 -9.01122e-05 1.58846
0.67 0.015 -0.0167349 -0.000595791 -8.71238e-05 1.53745
0.675 0.015 -0.01617 -0.000591483 -8.41551e-05 1.48679
0.68 0.015 -0.0156096 -0.000586428 -8.12098e-05 1.43653
0.685 0.015 -0.0150543 -0.000580658 -7.82916e-05 1.38674
0.69 0.015 -0.0145049 -0.00057421 -7.5404e-05 1.33745
0.695 0.015 -0.0139619 -0.000567119 -7.25502e-05 1.28873
0.7 0.015 -0.0134258 -0.000559423 -6.97335e-05 1.24063
0.705 0.015 -0.0128973 -0.000551159 -6.69566e-05 1.19318
0.71 0.015 -0.0123768 -0.000542363 -6.42225e-05 1.14643
0.715 0.015 -0.0118649 -0.000533074 -6.15336e-05 1.10042
0.72 0.015 -0.0113619 -0.00052333 -5.88922e-05 1.05518
0.725 0.015 -0.0108682 -0.000513166 -5.63007e-05 1.01076
0.73 0.015 -0.0103843 -0.000502621 -5.3761e-05 0.967178
0.735 0.015 -0.00991047 -0.000491731 -5.12749e-05 0.92447
0.74 0.015 -0.009447 -0.000480531 -4.88441e-05 0.882659
0.745 0.015 -0.00899417 -0.000469056 -4.647e-05 0.841771
0.75 0.015 -0.00855224 -0.000457339 -4.41539e-05 0.801827
0.755 0.015 -0.00812141 -0.000445414 -4.18969e-05 0.762845
0.76 0.015 -0.00770186 -0.000433312 -3.97e-05 0.724843
0.765 0.015 -0.00729376 -0.000421063 -3.7564e-05 0.687833
0.77 0.015 -0.00689722 -0.000408697 -3.54896e-05 0.651829
0.775 0.015 -0.00651236 -0.000396241 -3.34772e-05 0.616841
0.78 0.015 -0.00613924 -0.000383721 -3.15273e-05 0.582876
0.785 0.015 -0.00577792 -0.000371162 -2.96401e-05 0.54994
0.79 0.015 -0.00542843 -0.000358588 -2.78158e-05 0.518038
0.795 0.015 -0.00509078 -0.000346021 -2.60544e-05 0.487172
0.8 0.015 -0.00476496 -0.00033348 -2.43557e-05 0.457343
0.805 0.015 -0.00445095 -0.000320985 -2.27196e-05 0.428549
0.81 0.015 -0.0041487 -0.000308553 -2.11459e-05 0.400789
0.815 0.015 -0.00385814 -0.0002962 -1.96341e-05 0.37406
0.82 0.015 -0.00357921 -0.000283941 -1.81839e-05 0.348356
0.825 0.015 -0.00331183 -0.000271788 -1.67947e-05 0.323671