Title=" Lid Driven Flow"
VARIABLES="X","Y","U","V","psi","xi"
ZONE T= "BOX", I= 201, J=201, F=POINT
0 0 0 0 0.000272731 0
0.005 0 0 0 0 0
0.01 0 0 0 0 0
0.015 0 0 0 0 161.887
0.02 0 0 0 0 176.135
0.025 0 0 0 0 155.66
0.03 0 0 0 0 133.332
0.035 0 0 0 0 115.881
0.04 0 0 0 0 103.089
0.045 0 0 0 0 93.6041
0.05 0 0 0 0 86.3103
0.055 0 0 0 0 80.4714
0.06 0 0 0 0 75.6279
0.065 0 0 0 0 71.4913
0.07 0 0 0 0 67.8755
0.075 0 0 0 0 64.6564
0.08 0 0 0 0 61.7481
0.085 0 0 0 0 59.0899
0.09 0 0 0 0 56.6379
0.095 0 0 0 0 54.3594
0.1 0 0 0 0 52.2299
0.105 0 0 0 0 50.2306
0.11 0 0 0 0 48.3468
0.115 0 0 0 0 46.5667
0.12 0 0 0 0 44.8807
0.125 0 0 0 0 43.2811
0.13 0 0 0 0 41.761
0.135 0 0 0 0 40.3147
0.14 0 0 0 0 38.9371
0.145 0 0 0 0 37.6236
0.15 0 0 0 0 36.3701
0.155 0 0 0 0 35.1727
0.16 0 0 0 0 34.0279
0.165 0 0 0 0 32.9324
0.17 0 0 0 0 31.8831
0.175 0 0 0 0 30.8769
0.18 0 0 0 0 29.9112
0.185 0 0 0 0 28.9832
0.19 0 0 0 0 28.0905
0.195 0 0 0 0 27.2306
0.2 0 0 0 0 26.4012
0.205 0 0 0 0 25.6002
0.21 0 0 0 0 24.8256
0.215 0 0 0 0 24.0754
0.22 0 0 0 0 23.3478
0.225 0 0 0 0 22.6411
0.23 0 0 0 0 21.9538
0.235 0 0 0 0 21.2843
0.24 0 0 0 0 20.6312
0.245 0 0 0 0 19.9934
0.25 0 0 0 0 19.3695
0.255 0 0 0 0 18.7587
0.26 0 0 0 0 18.1598
0.265 0 0 0 0 17.5722
0.27 0 0 0 0 16.9949
0.275 0 0 0 0 16.4273
0.28 0 0 0 0 15.8689
0.285 0 0 0 0 15.3192
0.29 0 0 0 0 14.7777
0.295 0 0 0 0 14.2442
0.3 0 0 0 0 13.7184
0.305 0 0 0 0 13.2001
0.31 0 0 0 0 12.6894
0.315 0 0 0 0 12.186
0.32 0 0 0 0 11.6902
0.325 0 0 0 0 11.2019
0.33 0 0 0 0 10.7214
0.335 0 0 0 0 10.2487
0.34 0 0 0 0 9.78424
0.345 0 0 0 0 9.32817
0.35 0 0 0 0 8.88079
0.355 0 0 0 0 8.44243
0.36 0 0 0 0 8.01342
0.365 0 0 0 0 7.59409
0.37 0 0 0 0 7.18479
0.375 0 0 0 0 6.78584
0.38 0 0 0 0 6.39759
0.385 0 0 0 0 6.02035
0.39 0 0 0 0 5.65441
0.395 0 0 0 0 5.30004
0.4 0 0 0 0 4.95749
0.405 0 0 0 0 4.62697
0.41 0 0 0 0 4.30867
0.415 0 0 0 0 4.00271
0.42 0 0 0 0 3.7092
0.425 0 0 0 0 3.4282
0.43 0 0 0 0 3.15973
0.435 0 0 0 0 2.90376
0.44 0 0 0 0 2.66023
0.445 0 0 0 0 2.42903
0.45 0 0 0 0 2.21002
0.455 0 0 0 0 2.00301
0.46 0 0 0 0 1.80778
0.465 0 0 0 0 1.62409
0.47 0 0 0 0 1.45165
0.475 0 0 0 0 1.29014
0.48 0 0 0 0 1.13924
0.485 0 0 0 0 0.998598
0.49 0 0 0 0 0.867832
0.495 0 0 0 0 0.746559
0.5 0 0 0 0 0.634383
0.505 0 0 0 0 0.530899
0.51 0 0 0 0 0.435694
0.515 0 0 0 0 0.348356
0.52 0 0 0 0 0.268471
0.525 0 0 0 0 0.195628
0.53 0 0 0 0 0.12942
0.535 0 0 0 0 0.0694437
0.54 0 0 0 0 0.0153063
0.545 0 0 0 0 -0.0333775
0.55 0 0 0 0 -0.0769824
0.555 0 0 0 0 -0.115871
0.56 0 0 0 0 -0.150395
0.565 0 0 0 0 -0.180889
0.57 0 0 0 0 -0.207677
0.575 0 0 0 0 -0.231063
0.58 0 0 0 0 -0.251338
0.585 0 0 0 0 -0.268775
0.59 0 0 0 0 -0.283629
0.595 0 0 0 0 -0.296139
0.6 0 0 0 0 -0.306525
0.605 0 0 0 0 -0.314989
0.61 0 0 0 0 -0.321718
0.615 0 0 0 0 -0.32688
0.62 0 0 0 0 -0.330629
0.625 0 0 0 0 -0.333101
0.63 0 0 0 0 -0.334422
0.635 0 0 0 0 -0.334701
0.64 0 0 0 0 -0.334038
0.645 0 0 0 0 -0.332521
0.65 0 0 0 0 -0.330229
0.655 0 0 0 0 -0.327235
0.66 0 0 0 0 -0.323602
0.665 0 0 0 0 -0.319389
0.67 0 0 0 0 -0.31465
0.675 0 0 0 0 -0.309435
0.68 0 0 0 0 -0.303791
0.685 0 0 0 0 -0.297763
0.69 0 0 0 0 -0.291394
0.695 0 0 0 0 -0.284723
0.7 0 0 0 0 -0.277793
0.705 0 0 0 0 -0.27064
0.71 0 0 0 0 -0.263304
0.715 0 0 0 0 -0.255821
0.72 0 0 0 0 -0.248227
0.725 0 0 0 0 -0.240557
0.73 0 0 0 0 -0.232845
0.735 0 0 0 0 -0.225122
0.74 0 0 0 0 -0.21742
0.745 0 0 0 0 -0.209768
0.75 0 0 0 0 -0.202192
0.755 0 0 0 0 -0.194719
0.76 0 0 0 0 -0.187371
0.765 0 0 0 0 -0.180169
0.77 0 0 0 0 -0.173131
0.775 0 0 0 0 -0.166275
0.78 0 0 0 0 -0.159615
0.785 0 0 0 0 -0.15316
0.79 0 0 0 0 -0.146922
0.795 0 0 0 0 -0.140907
0.8 0 0 0 0 -0.135119
0.805 0 0 0 0 -0.129561
0.81 0 0 0 0 -0.124234
0.815 0 0 0 0 -0.119136
0.82 0 0 0 0 -0.114264
0.825 0 0 0 0 -0.109612
0.83 0 0 0 0 -0.105174
0.835 0 0 0 0 -0.100941
0.84 0 0 0 0 -0.0969038
0.845 0 0 0 0 -0.0930502
0.85 0 0 0 0 -0.0893682
0.855 0 0 0 0 -0.0858441
0.86 0 0 0 0 -0.0824633
0.865 0 0 0 0 -0.0792103
0.87 0 0 0 0 -0.0760688
0.875 0 0 0 0 -0.0730218
0.88 0 0 0 0 -0.070052
0.885 0 0 0 0 -0.0671416
0.89 0 0 0 0 -0.0642728
0.895 0 0 0 0 -0.0614276
0.9 0 0 0 0 -0.0585887
0.905 0 0 0 0 -0.055739
0.91 0 0 0 0 -0.0528626
0.915 0 0 0 0 -0.0499448
0.92 0 0 0 0 -0.0469724
0.925 0 0 0 0 -0.0439347
0.93 0 0 0 0 -0.0408236
0.935 0 0 0 0 -0.0376345
0.94 0 0 0 0 -0.034367
0.945 0 0 0 0 -0.0310258
0.95 0 0 0 0 -0.0276219
0.955 0 0 0 0 -0.0241734
0.96 0 0 0 0 -0.0207077
0.965 0 0 0 0 -0.0172622
0.97 0 0 0 0 -0.0138872
0.975 0 0 0 0 -0.0106475
0.98 0 0 0 0 -0.00762477
0.985 0 0 0 0 -0.00492006
0.99 0 0 0 0 -0.00265389
0.995 0 0 0 0 -0.000961265
1 0 0 0 0 3.05042e-05
0 0.005 0 0 0 0
0.005 0.005 0 0 0 0
0.01 0.005 0 0 0 73.7224
0.015 0.005 0 0 0 61.9653
0.02 0.005 0 0 0 45.4897
0.025 0.005 0 0 0 33.6541
0.03 0.005 0 0 0 25.7827
0.035 0.005 0 0 0 20.4682
0.04 0.005 0 0 0 16.7442
0.045 0.005 0 0 0 14.0324
0.05 0.005 0 0 0 11.9901
0.055 0.005 0 0 0 10.4088
0.06 0.005 0 0 0 9.15628
0.065 0.005 0 0 0 8.1457
0.07 0.005 0 0 0 7.31764
0.075 0.005 0 0 0 6.63025
0.08 0.005 0 0 0 6.05325
0.085 0.005 0 0 0 5.56425
0.09 0.005 0 0 0 5.14633
0.095 0.005 0 0 0 4.78654
0.1 0.005 0 0 0 4.47478
0.105 0.005 0 0 0 4.20307
0.11 0.005 0 0 0 3.96507
0.115 0.005 0 0 0 3.75564
0.12 0.005 0 0 0 3.57061
0.125 0.005 0 0 0 3.40655
0.13 0.005 0 0 0 3.26061
0.135 0.005 0 0 0 3.13042
0.14 0.005 0 0 0 3.01399
0.145 0.005 0 0 0 2.90962
0.15 0.005 0 0 0 2.81589
0.155 0.005 0 0 0 2.73156
0.16 0.005 0 0 0 2.65557
0.165 0.005 0 0 0 2.58702
0.17 0.005 0 0 0 2.52509
0.175 0.005 0 0 0 2.4691
0.18 0.005 0 0 0 2.41844
0.185 0.005 0 0 0 2.37257
0.19 0.005 0 0 0 2.331
0.195 0.005 0 0 0 2.29333
0.2 0.005 0 0 0 2.25917
0.205 0.005 0 0 0 2.22818
0.21 0.005 0 0 0 2.20007
0.215 0.005 0 0 0 2.17455
0.22 0.005 0 0 0 2.15139
0.225 0.005 0 0 0 2.13036
0.23 0.005 0 0 0 2.11125
0.235 0.005 0 0 0 2.09389
0.24 0.005 0 0 0 2.0781
0.245 0.005 0 0 0 2.06373
0.25 0.005 0 0 0 2.05064
0.255 0.005 0 0 0 2.03869
0.26 0.005 0 0 0 2.02777
0.265 0.005 0 0 0 2.01776
0.27 0.005 0 0 0 2.00856
0.275 0.005 0 0 0 2.00008
0.28 0.005 0 0 0 1.99223
0.285 0.005 0 0 0 1.98491
0.29 0.005 0 0 0 1.97807
0.295 0.005 0 0 0 1.97162
0.3 0.005 0 0 0 1.96549
0.305 0.005 0 0 0 1.95963
0.31 0.005 0 0 0 1.95398
0.315 0.005 0 0 0 1.94848
0.32 0.005 0 0 0 1.94308
0.325 0.005 0 0 0 1.93773
0.33 0.005 0 0 0 1.93239
0.335 0.005 0 0 0 1.92702
0.34 0.005 0 0 0 1.92157
0.345 0.005 0 0 0 1.91602
0.35 0.005 0 0 0 1.91032
0.355 0.005 0 0 0 1.90445
0.36 0.005 0 0 0 1.89837
0.365 0.005 0 0 0 1.89207
0.37 0.005 0 0 0 1.88551
0.375 0.005 0 0 0 1.87868
0.38 0.005 0 0 0 1.87154
0.385 0.005 0 0 0 1.86409
0.39 0.005 0 0 0 1.85631
0.395 0.005 0 0 0 1.84818
0.4 0.005 0 0 0 1.83968
0.405 0.005 0 0 0 1.83081
0.41 0.005 0 0 0 1.82156
0.415 0.005 0 0 0 1.81191
0.42 0.005 0 0 0 1.80186
0.425 0.005 0 0 0 1.7914
0.43 0.005 0 0 0 1.78053
0.435 0.005 0 0 0 1.76925
0.44 0.005 0 0 0 1.75755
0.445 0.005 0 0 0 1.74544
0.45 0.005 0 0 0 1.7329
0.455 0.005 0 0 0 1.71995
0.46 0.005 0 0 0 1.70659
0.465 0.005 0 0 0 1.69282
0.47 0.005 0 0 0 1.67865
0.475 0.005 0 0 0 1.66407
0.48 0.005 0 0 0 1.64911
0.485 0.005 0 0 0 1.63376
0.49 0.005 0 0 0 1.61803
0.495 0.005 0 0 0 1.60193
0.5 0.005 0 0 0 1.58548
0.505 0.005 0 0 0 1.56868
0.51 0.005 0 0 0 1.55153
0.515 0.005 0 0 0 1.53406
0.52 0.005 0 0 0 1.51628
0.525 0.005 0 0 0 1.49819
0.53 0.005 0 0 0 1.47981
0.535 0.005 0 0 0 1.46115
0.54 0.005 0 0 0 1.44222
0.545 0.005 0 0 0 1.42304
0.55 0.005 0 0 0 1.40362
0.555 0.005 0 0 0 1.38398
0.56 0.005 0 0 0 1.36412
0.565 0.005 0 0 0 1.34407
0.57 0.005 0 0 0 1.32383
0.575 0.005 0 0 0 1.30341
0.58 0.005 0 0 0 1.28284
0.585 0.005 0 0 0 1.26212
0.59 0.005 0 0 0 1.24128
0.595 0.005 0 0 0 1.22031
0.6 0.005 0 0 0 1.19924
0.605 0.005 0 0 0 1.17808
0.61 0.005 0 0 0 1.15684
0.615 0.005 0 0 0 1.13553
0.62 0.005 0 0 0 1.11416
0.625 0.005 0 0 0 1.09275
0.63 0.005 0 0 0 1.07132
0.635 0.005 0 0 0 1.04986
0.64 0.005 0 0 0 1.02839
0.645 0.005 0 0 0 1.00692
0.65 0.005 0 0 0 0.985469
0.655 0.005 0 0 0 0.964037
0.66 0.005 0 0 0 0.942638
0.665 0.005 0 0 0 0.92128
0.67 0.005 0 0 0 0.899972
0.675 0.005 0 0 0 0.878724
0.68 0.005 0 0 0 0.857544
0.685 0.005 0 0 0 0.83644
0.69 0.005 0 0 0 0.81542
0.695 0.005 0 0 0 0.794492
0.7 0.005 0 0 0 0.773663
0.705 0.005 0 0 0 0.752941
0.71 0.005 0 0 0 0.732332
0.715 0.005 0 0 0 0.711842
0.72 0.005 0 0 0 0.691479
0.725 0.005 0 0 0 0.671249
0.73 0.005 0 0 0 0.651158
0.735 0.005 0 0 0 0.631211
0.74 0.005 0 0 0 0.611415
0.745 0.005 0 0 0 0.591776
0.75 0.005 0 0 0 0.572299
0.755 0.005 0 0 0 0.552989
0.76 0.005 0 0 0 0.533853
0.765 0.005 0 0 0 0.514896
0.77 0.005 0 0 0 0.496124
0.775 0.005 0 0 0 0.477542
0.78 0.005 0 0 0 0.459156
0.785 0.005 0 0 0 0.440972
0.79 0.005 0 0 0 0.422997
0.795 0.005 0 0 0 0.405235
0.8 0.005 0 0 0 0.387695
0.805 0.005 0 0 0 0.370381
0.81 0.005 0 0 0 0.353302
0.815 0.005 0 0 0 0.336464
0.82 0.005 0 0 0 0.319874
0.825 0.005 0 0 0 0.303542
0.83 0.005 0 0 0 0.287474
0.835 0.005 0 0 0 0.271679
0.84 0.005 0 0 0 0.256167
0.845 0.005 0 0 0 0.240948
0.85 0.005 0 0 0 0.22603
0.855 0.005 0 0 0 0.211426
0.86 0.005 0 0 0 0.197146
0.865 0.005 0 0 0 0.183202
0.87 0.005 0 0 0 0.169607
0.875 0.005 0 0 0 0.156374
0.88 0.005 0 0 0 0.143518
0.885 0.005 0 0 0 0.131054
0.89 0.005 0 0 0 0.118997
0.895 0.005 0 0 0 0.107364
0.9 0.005 0 0 0 0.096175
0.905 0.005 0 0 0 0.0854475
0.91 0.005 0 0 0 0.0752022
0.915 0.005 0 0 0 0.0654608
0.92 0.005 0 0 0 0.0562464
0.925 0.005 0 0 0 0.0475832
0.93 0.005 0 0 0 0.0394971
0.935 0.005 0 0 0 0.0320151
0.94 0.005 0 0 0 0.0251658
0.945 0.005 0 0 0 0.0189788
0.95 0.005 0 0 0 0.0134847
0.955 0.005 0 0 0 0.00871412
0.96 0.005 0 0 0 0.00469719
0.965 0.005 0 0 0 0.00146139
0.97 0.005 0 0 0 -0.000971061
0.975 0.005 0 0 0 -0.00258821
0.98 0.005 0 0 0 -0.00339686
0.985 0.005 0 0 0 -0.00343771
0.99 0.005 0 0 0 -0.00281236
0.995 0.005 0 0 0 -0.00173054
1 0.005 0 0 0 -0.000583062
0 0.01 0 0 -0.000583062 0
0.005 0.01 0 0 0 -326.278
0.01 0.01 -0.179933 0.0774566 -0.00092153 -44.4889
0.015 0.01 -0.18441 -0.0352909 -0.000774566 9.43932
0.02 0.01 -0.155572 -0.0353889 -0.000568621 19.0591
0.025 0.01 -0.126608 -0.0246337 -0.000420677 18.971
0.03 0.01 -0.103407 -0.0164825 -0.000322284 16.8587
0.035 0.01 -0.0857014 -0.0112981 -0.000255852 14.6077
0.04 0.01 -0.0722154 -0.00804465 -0.000209303 12.648
0.045 0.01 -0.061812 -0.00594263 -0.000175405 11.0271
0.05 0.01 -0.0536514 -0.00452959 -0.000149877 9.70091
0.055 0.01 -0.0471428 -0.00354231 -0.000130109 8.6128
0.06 0.01 -0.0418718 -0.00282881 -0.000114453 7.71339
0.065 0.01 -0.0375447 -0.00229828 -0.000101821 6.96346
0.07 0.01 -0.03395 -0.00189431 -9.14704e-05 6.33272
0.075 0.01 -0.0309322 -0.00158048 -8.2878e-05 5.79785
0.08 0.01 -0.0283753 -0.00133249 -7.56655e-05 5.34087
0.085 0.01 -0.0261911 -0.00113364 -6.9553e-05 4.94773
0.09 0.01 -0.0243117 -0.000972119 -6.4329e-05 4.60741
0.095 0.01 -0.0226842 -0.000839432 -5.98316e-05 4.31114
0.1 0.01 -0.0212666 -0.000729324 -5.59346e-05 4.0519
0.105 0.01 -0.0200256 -0.00063712 -5.25383e-05 3.82402
0.11 0.01 -0.0189341 -0.000559274 -4.95633e-05 3.62286
0.115 0.01 -0.0179702 -0.000493059 -4.69454e-05 3.44463
0.12 0.01 -0.0171157 -0.000436356 -4.46326e-05 3.28616
0.125 0.01 -0.0163558 -0.000387496 -4.25818e-05 3.14485
0.13 0.01 -0.015678 -0.000345155 -4.07575e-05 3.01848
0.135 0.01 -0.0150718 -0.000308272 -3.91302e-05 2.9052
0.14 0.01 -0.0145284 -0.000275992 -3.76747e-05 2.80341
0.145 0.01 -0.0140402 -0.000247615 -3.63702e-05 2.71179
0.15 0.01 -0.0136008 -0.000222571 -3.51985e-05 2.62916
0.155 0.01 -0.0132048 -0.000200388 -3.41444e-05 2.55452
0.16 0.01 -0.0128472 -0.000180672 -3.31946e-05 2.48702
0.165 0.01 -0.0125239 -0.000163097 -3.23377e-05 2.42588
0.17 0.01 -0.0122314 -0.000147387 -3.15636e-05 2.37045
0.175 0.01 -0.0119665 -0.00013331 -3.08638e-05 2.32016
0.18 0.01 -0.0117263 -0.000120669 -3.02305e-05 2.27448
0.185 0.01 -0.0115084 -0.000109296 -2.96571e-05 2.23296
0.19 0.01 -0.0113106 -9.90458e-05 -2.91376e-05 2.1952
0.195 0.01 -0.011131 -8.97956e-05 -2.86666e-05 2.16083
0.2 0.01 -0.0109678 -8.14379e-05 -2.82396e-05 2.12954
0.205 0.01 -0.0108195 -7.38801e-05 -2.78523e-05 2.10104
0.21 0.01 -0.0106846 -6.70414e-05 -2.75009e-05 2.07506
0.215 0.01 -0.0105619 -6.08513e-05 -2.71819e-05 2.05137
0.22 0.01 -0.0104502 -5.5248e-05 -2.68924e-05 2.02976
0.225 0.01 -0.0103485 -5.01772e-05 -2.66295e-05 2.01002
0.23 0.01 -0.0102559 -4.5591e-05 -2.63907e-05 1.99199
0.235 0.01 -0.0101715 -4.14469e-05 -2.61737e-05 1.9755
0.24 0.01 -0.0100945 -3.77073e-05 -2.59763e-05 1.9604
0.245 0.01 -0.0100241 -3.43386e-05 -2.57967e-05 1.94656
0.25 0.01 -0.00995981 -3.1311e-05 -2.56331e-05 1.93386
0.255 0.01 -0.00990086 -2.85975e-05 -2.54837e-05 1.92216
0.26 0.01 -0.00984674 -2.61741e-05 -2.53472e-05 1.91138
0.265 0.01 -0.00979693 -2.40189e-05 -2.52221e-05 1.90141
0.27 0.01 -0.00975093 -2.21124e-05 -2.51072e-05 1.89216
0.275 0.01 -0.0097083 -2.04367e-05 -2.50012e-05 1.88354
0.28 0.01 -0.00966861 -1.89755e-05 -2.4903e-05 1.87548
0.285 0.01 -0.00963148 -1.77141e-05 -2.48116e-05 1.86791
0.29 0.01 -0.00959655 -1.66387e-05 -2.4726e-05 1.86074
0.295 0.01 -0.00956347 -1.5737e-05 -2.46454e-05 1.85393
0.3 0.01 -0.00953194 -1.49973e-05 -2.45688e-05 1.84741
0.305 0.01 -0.00950164 -1.44091e-05 -2.44956e-05 1.84112
0.31 0.01 -0.00947232 -1.39624e-05 -2.4425e-05 1.83501
0.315 0.01 -0.00944371 -1.3648e-05 -2.43562e-05 1.82904
0.32 0.01 -0.00941556 -1.34572e-05 -2.42887e-05 1.82316
0.325 0.01 -0.00938767 -1.3382e-05 -2.42219e-05 1.81733
0.33 0.01 -0.0093598 -1.34148e-05 -2.41551e-05 1.8115
0.335 0.01 -0.00933178 -1.35483e-05 -2.4088e-05 1.80565
0.34 0.01 -0.00930341 -1.37757e-05 -2.40199e-05 1.79973
0.345 0.01 -0.00927453 -1.40906e-05 -2.39505e-05 1.79371
0.35 0.01 -0.00924497 -1.44867e-05 -2.38793e-05 1.78757
0.355 0.01 -0.00921459 -1.49583e-05 -2.38059e-05 1.78128
0.36 0.01 -0.00918326 -1.54997e-05 -2.37299e-05 1.7748
0.365 0.01 -0.00915084 -1.61055e-05 -2.36511e-05 1.76813
0.37 0.01 -0.00911723 -1.67705e-05 -2.35692e-05 1.76123
0.375 0.01 -0.00908231 -1.74897e-05 -2.34837e-05 1.75409
0.38 0.01 -0.009046 -1.82584e-05 -2.33946e-05 1.74669
0.385 0.01 -0.00900819 -1.90719e-05 -2.33014e-05 1.73901
0.39 0.01 -0.00896882 -1.99257e-05 -2.32042e-05 1.73103
0.395 0.01 -0.00892781 -2.08156e-05 -2.31025e-05 1.72276
0.4 0.01 -0.0088851 -2.17373e-05 -2.29963e-05 1.71416
0.405 0.01 -0.00884064 -2.26868e-05 -2.28854e-05 1.70524
0.41 0.01 -0.00879437 -2.36603e-05 -2.27698e-05 1.69598
0.415 0.01 -0.00874626 -2.46539e-05 -2.26492e-05 1.68638
0.42 0.01 -0.00869626 -2.56641e-05 -2.25235e-05 1.67643
0.425 0.01 -0.00864437 -2.66873e-05 -2.23928e-05 1.66613
0.43 0.01 -0.00859055 -2.77202e-05 -2.2257e-05 1.65546
0.435 0.01 -0.00853479 -2.87595e-05 -2.2116e-05 1.64444
0.44 0.01 -0.00847708 -2.98021e-05 -2.19697e-05 1.63306
0.445 0.01 -0.00841742 -3.0845e-05 -2.18183e-05 1.62131
0.45 0.01 -0.00835581 -3.18853e-05 -2.16616e-05 1.6092
0.455 0.01 -0.00829227 -3.29204e-05 -2.14998e-05 1.59673
0.46 0.01 -0.0082268 -3.39474e-05 -2.13327e-05 1.58391
0.465 0.01 -0.00815942 -3.49641e-05 -2.11606e-05 1.57073
0.47 0.01 -0.00809016 -3.5968e-05 -2.09834e-05 1.5572
0.475 0.01 -0.00801903 -3.69568e-05 -2.08013e-05 1.54333
0.48 0.01 -0.00794608 -3.79285e-05 -2.06142e-05 1.52912
0.485 0.01 -0.00787134 -3.88812e-05 -2.04223e-05 1.51457
0.49 0.01 -0.00779484 -3.98128e-05 -2.02257e-05 1.49971
0.495 0.01 -0.00771663 -4.07218e-05 -2.00245e-05 1.48452
0.5 0.01 -0.00763675 -4.16066e-05 -1.98188e-05 1.46903
0.505 0.01 -0.00755524 -4.24656e-05 -1.96088e-05 1.45324
0.51 0.01 -0.00747217 -4.32976e-05 -1.93945e-05 1.43715
0.515 0.01 -0.00738757 -4.41012e-05 -1.91761e-05 1.42079
0.52 0.01 -0.0073015 -4.48755e-05 -1.89538e-05 1.40416
0.525 0.01 -0.00721403 -4.56195e-05 -1.87277e-05 1.38726
0.53 0.01 -0.0071252 -4.63323e-05 -1.84979e-05 1.37012
0.535 0.01 -0.00703508 -4.70131e-05 -1.82647e-05 1.35274
0.54 0.01 -0.00694373 -4.76614e-05 -1.80281e-05 1.33513
0.545 0.01 -0.00685121 -4.82766e-05 -1.77883e-05 1.31731
0.55 0.01 -0.00675758 -4.88584e-05 -1.75456e-05 1.29928
0.555 0.01 -0.0066629 -4.94065e-05 -1.73e-05 1.28106
0.56 0.01 -0.00656724 -4.99206e-05 -1.70518e-05 1.26266
0.565 0.01 -0.00647066 -5.04006e-05 -1.68011e-05 1.24409
0.57 0.01 -0.00637323 -5.08466e-05 -1.65481e-05 1.22537
0.575 0.01 -0.006275 -5.12586e-05 -1.62929e-05 1.2065
0.58 0.01 -0.00617605 -5.16368e-05 -1.60358e-05 1.18749
0.585 0.01 -0.00607643 -5.19814e-05 -1.57768e-05 1.16837
0.59 0.01 -0.00597621 -5.22928e-05 -1.55162e-05 1.14914
0.595 0.01 -0.00587545 -5.25713e-05 -1.52542e-05 1.1298
0.6 0.01 -0.0057742 -5.28173e-05 -1.49908e-05 1.11038
0.605 0.01 -0.00567254 -5.30314e-05 -1.47262e-05 1.09089
0.61 0.01 -0.00557052 -5.32142e-05 -1.44607e-05 1.07133
0.615 0.01 -0.00546819 -5.33662e-05 -1.41943e-05 1.05171
0.62 0.01 -0.00536562 -5.3488e-05 -1.39273e-05 1.03205
0.625 0.01 -0.00526286 -5.35805e-05 -1.36597e-05 1.01236
0.63 0.01 -0.00515996 -5.36442e-05 -1.33917e-05 0.992647
0.635 0.01 -0.00505697 -5.368e-05 -1.31234e-05 0.972919
0.64 0.01 -0.00495396 -5.36885e-05 -1.28551e-05 0.953187
0.645 0.01 -0.00485096 -5.36706e-05 -1.25867e-05 0.93346
0.65 0.01 -0.00474804 -5.3627e-05 -1.23186e-05 0.913748
0.655 0.01 -0.00464522 -5.35586e-05 -1.20507e-05 0.894059
0.66 0.01 -0.00454257 -5.34662e-05 -1.17832e-05 0.874402
0.665 0.01 -0.00444012 -5.33505e-05 -1.15162e-05 0.854785
0.67 0.01 -0.00433791 -5.32123e-05 -1.12498e-05 0.835216
0.675 0.01 -0.004236 -5.30525e-05 -1.09842e-05 0.815702
0.68 0.01 -0.00413441 -5.28717e-05 -1.07195e-05 0.796252
0.685 0.01 -0.00403319 -5.26707e-05 -1.04557e-05 0.776872
0.69 0.01 -0.00393237 -5.24502e-05 -1.01929e-05 0.757569
0.695 0.01 -0.003832 -5.22109e-05 -9.93129e-06 0.73835
0.7 0.01 -0.00373209 -5.19534e-05 -9.67093e-06 0.719222
0.705 0.01 -0.0036327 -5.16784e-05 -9.41189e-06 0.70019
0.71 0.01 -0.00353385 -5.13864e-05 -9.15427e-06 0.681261
0.715 0.01 -0.00343556 -5.10779e-05 -8.89815e-06 0.662441
0.72 0.01 -0.00333788 -5.07535e-05 -8.64361e-06 0.643736
0.725 0.01 -0.00324084 -5.04136e-05 -8.39073e-06 0.625151
0.73 0.01 -0.00314445 -5.00585e-05 -8.13958e-06 0.606691
0.735 0.01 -0.00304876 -4.96886e-05 -7.89024e-06 0.588362
0.74 0.01 -0.00295378 -4.93042e-05 -7.64279e-06 0.57017
0.745 0.01 -0.00285954 -4.89054e-05 -7.39729e-06 0.552119
0.75 0.01 -0.00276608 -4.84925e-05 -7.15382e-06 0.534215
0.755 0.01 -0.00267342 -4.80656e-05 -6.91245e-06 0.516462
0.76 0.01 -0.00258158 -4.76245e-05 -6.67324e-06 0.498866
0.765 0.01 -0.0024906 -4.71695e-05 -6.43628e-06 0.481433
0.77 0.01 -0.00240049 -4.67002e-05 -6.20162e-06 0.464166
0.775 0.01 -0.0023113 -4.62166e-05 -5.96934e-06 0.447072
0.78 0.01 -0.00222303 -4.57184e-05 -5.73951e-06 0.430156
0.785 0.01 -0.00213573 -4.52054e-05 -5.51221e-06 0.413422
0.79 0.01 -0.00204942 -4.46771e-05 -5.28751e-06 0.396878
0.795 0.01 -0.00196414 -4.4133e-05 -5.06549e-06 0.380528
0.8 0.01 -0.0018799 -4.35728e-05 -4.84623e-06 0.364379
0.805 0.01 -0.00179675 -4.29956e-05 -4.6298e-06 0.348436
0.81 0.01 -0.00171472 -4.2401e-05 -4.41631e-06 0.332706
0.815 0.01 -0.00163384 -4.1788e-05 -4.20583e-06 0.317196
0.82 0.01 -0.00155415 -4.1156e-05 -3.99846e-06 0.301913
0.825 0.01 -0.00147569 -4.05038e-05 -3.7943e-06 0.286864
0.83 0.01 -0.00139849 -3.98306e-05 -3.59345e-06 0.272057
0.835 0.01 -0.00132259 -3.91353e-05 -3.39601e-06 0.257499
0.84 0.01 -0.00124805 -3.84166e-05 -3.20211e-06 0.243199
0.845 0.01 -0.00117491 -3.76733e-05 -3.01187e-06 0.229167
0.85 0.01 -0.00110322 -3.6904e-05 -2.8254e-06 0.215412
0.855 0.01 -0.00103302 -3.61072e-05 -2.64284e-06 0.201943
0.86 0.01 -0.000964372 -3.52814e-05 -2.46433e-06 0.188771
0.865 0.01 -0.000897337 -3.44247e-05 -2.29003e-06 0.175907
0.87 0.01 -0.000831973 -3.35355e-05 -2.12009e-06 0.163363
0.875 0.01 -0.000768345 -3.26118e-05 -1.95468e-06 0.151152
0.88 0.01 -0.00070652 -3.16514e-05 -1.79398e-06 0.139286
0.885 0.01 -0.00064657 -3.06521e-05 -1.63817e-06 0.127779
0.89 0.01 -0.000588573 -2.96116e-05 -1.48746e-06 0.116645
0.895 0.01 -0.000532609 -2.85272e-05 -1.34206e-06 0.105901
0.9 0.01 -0.000478764 -2.73963e-05 -1.20219e-06 0.0955617
0.905 0.01 -0.000427127 -2.62159e-05 -1.06809e-06 0.0856449
0.91 0.01 -0.000377796 -2.49831e-05 -9.40024e-07 0.0761684
0.915 0.01 -0.00033087 -2.36944e-05 -8.18257e-07 0.067151
0.92 0.01 -0.000286457 -2.23467e-05 -7.03076e-07 0.0586124
0.925 0.01 -0.000244669 -2.09363e-05 -5.94786e-07 0.0505731
0.93 0.01 -0.000205622 -1.94598e-05 -4.93709e-07 0.0430543
0.935 0.01 -0.000169441 -1.79137e-05 -4.00184e-07 0.0360778
0.94 0.01 -0.00013625 -1.62949e-05 -3.14567e-07 0.0296657
0.945 0.01 -0.00010618 -1.46009e-05 -2.3723e-07 0.0238399
0.95 0.01 -7.93601e-05 -1.28304e-05 -1.68554e-07 0.0186214
0.955 0.01 -5.59175e-05 -1.09839e-05 -1.08923e-07 0.0140299
0.96 0.01 -3.59698e-05 -9.06553e-06 -5.87114e-08 0.0100815
0.965 0.01 -1.96168e-05 -7.08496e-06 -1.82644e-08 0.00678717
0.97 0.01 -6.92603e-06 -5.06169e-06 1.21408e-08 0.00414926
0.975 0.01 2.09001e-06 -3.03199e-06 3.23545e-08 0.00215654
0.98 0.01 7.5095e-06 -1.06168e-06 4.24621e-08 0.000777009
0.985 0.01 9.55843e-06 7.30769e-07 4.29722e-08 -5.25433e-05
0.99 0.01 8.70005e-06 2.13405e-06 3.51549e-08 -0.000439438
0.995 0.01 5.7701e-06 2.78666e-06 2.16319e-08 -0.000544695
1 0.01 2.16009e-06 2.16319e-06 7.28827e-09 -0.000563201
0 0.015 0 0 -0.00172807 0
0.005 0.015 0 0 0 -256.054
0.01 0.015 -0.152595 0.18441 -0.00179933 -79.3687
0.015 0.015 -0.205556 -0.0243613 -0.0018441 -16.6659
0.02 0.015 -0.203593 -0.0578019 -0.00155572 2.4189
0.025 0.015 -0.183634 -0.0521645 -0.00126608 8.12697
0.03 0.015 -0.160643 -0.0409063 -0.00103407 9.51177
0.035 0.015 -0.13958 -0.0311919 -0.000857014 9.42693
0.04 0.015 -0.121629 -0.0238894 -0.000722154 8.85652
0.045 0.015 -0.106701 -0.018564 -0.000618119 8.16061
0.05 0.015 -0.0943576 -0.0146692 -0.000536514 7.47282
0.055 0.015 -0.0841257 -0.0117796 -0.000471428 6.83991
0.06 0.015 -0.0755948 -0.009598 -0.000418717 6.2744
0.065 0.015 -0.0684315 -0.00792169 -0.000375447 5.77544
0.07 0.015 -0.0623722 -0.00661247 -0.0003395 5.33729
0.075 0.015 -0.0572102 -0.00557471 -0.000309322 4.95291
0.08 0.015 -0.052783 -0.00474114 -0.000283753 4.61534
0.085 0.015 -0.0489622 -0.00406357 -0.00026191 4.31824
0.09 0.015 -0.0456458 -0.00350687 -0.000243116 4.05609
0.095 0.015 -0.0427522 -0.00304504 -0.000226841 3.82412
0.1 0.015 -0.0402153 -0.00265853 -0.000212666 3.61826
0.105 0.015 -0.0379815 -0.00233247 -0.000200255 3.43506
0.11 0.015 -0.0360068 -0.00205538 -0.000189341 3.27158
0.115 0.015 -0.034255 -0.00181833 -0.000179701 3.12533
0.12 0.015 -0.0326957 -0.00161429 -0.000171157 2.99417
0.125 0.015 -0.0313039 -0.00143766 -0.000163558 2.8763
0.13 0.015 -0.0300582 -0.00128397 -0.00015678 2.77013
0.135 0.015 -0.0289406 -0.00114959 -0.000150718 2.67434
0.14 0.015 -0.0279359 -0.00103158 -0.000145284 2.58775
0.145 0.015 -0.0270309 -0.000927528 -0.000140402 2.50936
0.15 0.015 -0.0262144 -0.000835437 -0.000136008 2.4383
0.155 0.015 -0.0254766 -0.000753655 -0.000132047 2.37378
0.16 0.015 -0.0248089 -0.000680805 -0.000128472 2.31516
0.165 0.015 -0.0242041 -0.000615726 -0.000125239 2.26182
0.17 0.015 -0.0236557 -0.000557442 -0.000122314 2.21324
0.175 0.015 -0.0231579 -0.000505125 -0.000119665 2.16897
0.18 0.015 -0.0227057 -0.000458068 -0.000117263 2.12858
0.185 0.015 -0.0222946 -0.000415667 -0.000115084 2.09172
0.19 0.015 -0.0219207 -0.000377404 -0.000113106 2.05804
0.195 0.015 -0.0215805 -0.00034283 -0.00011131 2.02726
0.2 0.015 -0.0212707 -0.000311557 -0.000109678 1.99911
0.205 0.015 -0.0209884 -0.00028325 -0.000108195 1.97334
0.21 0.015 -0.0207312 -0.000257612 -0.000106846 1.94974
0.215 0.015 -0.0204967 -0.000234388 -0.000105619 1.92811
0.22 0.015 -0.0202827 -0.00021335 -0.000104502 1.90827
0.225 0.015 -0.0200873 -0.000194299 -0.000103486 1.89005
0.23 0.015 -0.0199089 -0.000177059 -0.00010256 1.87331
0.235 0.015 -0.0197457 -0.000161474 -0.000101716 1.8579
0.24 0.015 -0.0195964 -0.000147404 -0.000100945 1.84369
0.245 0.015 -0.0194595 -0.000134726 -0.000100242 1.83058
0.25 0.015 -0.0193338 -0.000123328 -9.95985e-05 1.81845
0.255 0.015 -0.0192183 -0.000113111 -9.90091e-05 1.8072
0.26 0.015 -0.0191117 -0.000103985 -9.8468e-05 1.79674
0.265 0.015 -0.0190132 -9.5868e-05 -9.79698e-05 1.78699
0.27 0.015 -0.0189219 -8.86878e-05 -9.75099e-05 1.77786
0.275 0.015 -0.0188368 -8.23771e-05 -9.70836e-05 1.76928
0.28 0.015 -0.0187572 -7.68749e-05 -9.66868e-05 1.76118
0.285 0.015 -0.0186824 -7.21257e-05 -9.63155e-05 1.75351
0.29 0.015 -0.0186117 -6.80783e-05 -9.59662e-05 1.74619
0.295 0.015 -0.0185444 -6.46856e-05 -9.56355e-05 1.73917
0.3 0.015 -0.0184801 -6.19043e-05 -9.53201e-05 1.7324
0.305 0.015 -0.018418 -5.96939e-05 -9.50172e-05 1.72584
0.31 0.015 -0.0183577 -5.80172e-05 -9.4724e-05 1.71943
0.315 0.015 -0.0182988 -5.6839e-05 -9.44379e-05 1.71313
0.32 0.015 -0.0182406 -5.61268e-05 -9.41565e-05 1.70691
0.325 0.015 -0.018183 -5.58499e-05 -9.38776e-05 1.70073
0.33 0.015 -0.0181253 -5.59794e-05 -9.3599e-05 1.69454
0.335 0.015 -0.0180674 -5.64879e-05 -9.33188e-05 1.68833
0.34 0.015 -0.0180088 -5.73496e-05 -9.30351e-05 1.68206
0.345 0.015 -0.0179492 -5.854e-05 -9.27463e-05 1.67571
0.35 0.015 -0.0178883 -6.00356e-05 -9.24507e-05 1.66924
0.355 0.015 -0.0178258 -6.18142e-05 -9.2147e-05 1.66263
0.36 0.015 -0.0177615 -6.38543e-05 -9.18337e-05 1.65586
0.365 0.015 -0.0176952 -6.61356e-05 -9.15095e-05 1.64892
0.37 0.015 -0.0176267 -6.86383e-05 -9.11734e-05 1.64178
0.375 0.015 -0.0175556 -7.13437e-05 -9.08243e-05 1.63443
0.38 0.015 -0.017482 -7.42335e-05 -9.04611e-05 1.62684
0.385 0.015 -0.0174055 -7.72901e-05 -9.00831e-05 1.61902
0.39 0.015 -0.0173261 -8.04968e-05 -8.96894e-05 1.61093
0.395 0.015 -0.0172436 -8.38372e-05 -8.92793e-05 1.60258
0.4 0.015 -0.0171579 -8.72955e-05 -8.88523e-05 1.59396
0.405 0.015 -0.0170689 -9.08566e-05 -8.84076e-05 1.58505
0.41 0.015 -0.0169766 -9.45059e-05 -8.79449e-05 1.57584
0.415 0.015 -0.0168807 -9.8229e-05 -8.74638e-05 1.56634
0.42 0.015 -0.0167814 -0.000102013 -8.69639e-05 1.55654
0.425 0.015 -0.0166785 -0.000105843 -8.64449e-05 1.54643
0.43 0.015 -0.016572 -0.000109708 -8.59067e-05 1.53601
0.435 0.015 -0.0164618 -0.000113596 -8.53491e-05 1.52528
0.44 0.015 -0.0163481 -0.000117494 -8.4772e-05 1.51423
0.445 0.015 -0.0162306 -0.000121392 -8.41755e-05 1.50288
0.45 0.015 -0.0161096 -0.000125278 -8.35594e-05 1.49121
0.455 0.015 -0.0159849 -0.000129143 -8.2924e-05 1.47923
0.46 0.015 -0.0158567 -0.000132977 -8.22693e-05 1.46695
0.465 0.015 -0.0157248 -0.00013677 -8.15955e-05 1.45436
0.47 0.015 -0.0155895 -0.000140514 -8.09029e-05 1.44148
0.475 0.015 -0.0154507 -0.000144201 -8.01916e-05 1.4283
0.48 0.015 -0.0153085 -0.000147822 -7.94621e-05 1.41483
0.485 0.015 -0.015163 -0.00015137 -7.87147e-05 1.40107
0.49 0.015 -0.0150142 -0.000154839 -7.79497e-05 1.38704
0.495 0.015 -0.0148622 -0.000158222 -7.71676e-05 1.37274
0.5 0.015 -0.0147071 -0.000161514 -7.63687e-05 1.35818
0.505 0.015 -0.014549 -0.000164708 -7.55537e-05 1.34336
0.51 0.015 -0.014388 -0.0001678 -7.47229e-05 1.32829
0.515 0.015 -0.0142242 -0.000170786 -7.38769e-05 1.31299
0.52 0.015 -0.0140576 -0.000173661 -7.30163e-05 1.29746
0.525 0.015 -0.0138885 -0.000176422 -7.21415e-05 1.28171
0.53 0.015 -0.0137168 -0.000179067 -7.12532e-05 1.26575
0.535 0.015 -0.0135427 -0.000181591 -7.0352e-05 1.24958
0.54 0.015 -0.0133664 -0.000183993 -6.94385e-05 1.23323
0.545 0.015 -0.0131879 -0.000186272 -6.85132e-05 1.21669
0.55 0.015 -0.0130073 -0.000188425 -6.75769e-05 1.19998
0.555 0.015 -0.0128248 -0.000190451 -6.66301e-05 1.18312
0.56 0.015 -0.0126406 -0.000192351 -6.56735e-05 1.1661
0.565 0.015 -0.0124546 -0.000194123 -6.47077e-05 1.14894
0.57 0.015 -0.012267 -0.000195768 -6.37333e-05 1.13165
0.575 0.015 -0.012078 -0.000197286 -6.27511e-05 1.11424
0.58 0.015 -0.0118877 -0.000198678 -6.17615e-05 1.09672
0.585 0.015 -0.0116961 -0.000199944 -6.07653e-05 1.0791
0.59 0.015 -0.0115034 -0.000201086 -5.97631e-05 1.06139
0.595 0.015 -0.0113098 -0.000202105 -5.87554e-05 1.0436
0.6 0.015 -0.0111153 -0.000203003 -5.7743e-05 1.02573
0.605 0.015 -0.01092 -0.000203782 -5.67263e-05 1.00781
0.61 0.015 -0.010724 -0.000204444 -5.57061e-05 0.989838
0.615 0.015 -0.0105275 -0.000204991 -5.46828e-05 0.971822
0.62 0.015 -0.0103306 -0.000205425 -5.36571e-05 0.953773
0.625 0.015 -0.0101334 -0.00020575 -5.26294e-05 0.935699
0.63 0.015 -0.0099359 -0.000205967 -5.16004e-05 0.91761
0.635 0.015 -0.00973829 -0.00020608 -5.05706e-05 0.899514
0.64 0.015 -0.00954063 -0.000206091 -4.95404e-05 0.881418
0.645 0.015 -0.00934304 -0.000206003 -4.85104e-05 0.863332
0.65 0.015 -0.00914559 -0.00020582 -4.74811e-05 0.845262
0.655 0.015 -0.00894838 -0.000205544 -4.64529e-05 0.827217
0.66 0.015 -0.00875149 -0.000205178 -4.54264e-05 0.809203
0.665 0.015 -0.008555 -0.000204725 -4.44019e-05 0.791228
0.67 0.015 -0.00835899 -0.000204187 -4.33798e-05 0.773299
0.675 0.015 -0.00816354 -0.000203569 -4.23606e-05 0.755421
0.68 0.015 -0.00796873 -0.000202872 -4.13447e-05 0.737603
0.685 0.015 -0.00777462 -0.000202099 -4.03325e-05 0.71985
0.69 0.015 -0.00758129 -0.000201254 -3.93243e-05 0.702168
0.695 0.015 -0.00738881 -0.000200337 -3.83205e-05 0.684562
0.7 0.015 -0.00719723 -0.000199353 -3.73215e-05 0.66704
0.705 0.015 -0.00700662 -0.000198302 -3.63275e-05 0.649605
0.71 0.015 -0.00681705 -0.000197187 -3.5339e-05 0.632264
0.715 0.015 -0.00662857 -0.000196011 -3.43561e-05 0.615022
0.72 0.015 -0.00644124 -0.000194774 -3.33793e-05 0.597883
0.725 0.015 -0.00625511 -0.000193478 -3.24088e-05 0.580853
0.73 0.015 -0.00607025 -0.000192125 -3.14449e-05 0.563937
0.735 0.015 -0.00588669 -0.000190716 -3.0488e-05 0.547139
0.74 0.015 -0.00570451 -0.000189252 -2.95382e-05 0.530464
0.745 0.015 -0.00552374 -0.000187733 -2.85958e-05 0.513917
0.75 0.015 -0.00534444 -0.00018616 -2.76612e-05 0.497503
0.755 0.015 -0.00516667 -0.000184534 -2.67345e-05 0.481226
0.76 0.015 -0.00499047 -0.000182854 -2.58161e-05 0.46509
0.765 0.015 -0.00481589 -0.00018112 -2.49063e-05 0.449101
0.77 0.015 -0.00464298 -0.000179332 -2.40052e-05 0.433263
0.775 0.015 -0.00447181 -0.000177488 -2.31132e-05 0.417581
0.78 0.015 -0.00430241 -0.000175589 -2.22306e-05 0.40206
0.785 0.015 -0.00413485 -0.000173633 -2.13575e-05 0.386705
0.79 0.015 -0.00396918 -0.000171617 -2.04945e-05 0.371521
0.795 0.015 -0.00380545 -0.000169542 -1.96416e-05 0.356513