Title=" Lid Driven Flow"
VARIABLES="X","Y","U","V","psi","xi"
ZONE T= "BOX", I= 201, J=201, F=POINT
0 0 0 0 0.000593011 0
0.005 0 0 0 0 0
0.01 0 0 0 0 0
0.015 0 0 0 0 161.888
0.02 0 0 0 0 176.134
0.025 0 0 0 0 155.65
0.03 0 0 0 0 133.309
0.035 0 0 0 0 115.843
0.04 0 0 0 0 103.037
0.045 0 0 0 0 93.5412
0.05 0 0 0 0 86.2399
0.055 0 0 0 0 80.3984
0.06 0 0 0 0 75.5572
0.065 0 0 0 0 71.4283
0.07 0 0 0 0 67.8251
0.075 0 0 0 0 64.6231
0.08 0 0 0 0 61.7359
0.085 0 0 0 0 59.1024
0.09 0 0 0 0 56.678
0.095 0 0 0 0 54.4295
0.1 0 0 0 0 52.3319
0.105 0 0 0 0 50.3659
0.11 0 0 0 0 48.5164
0.115 0 0 0 0 46.7714
0.12 0 0 0 0 45.121
0.125 0 0 0 0 43.557
0.13 0 0 0 0 42.0727
0.135 0 0 0 0 40.6621
0.14 0 0 0 0 39.3199
0.145 0 0 0 0 38.0417
0.15 0 0 0 0 36.8233
0.155 0 0 0 0 35.6607
0.16 0 0 0 0 34.5507
0.165 0 0 0 0 33.4898
0.17 0 0 0 0 32.475
0.175 0 0 0 0 31.5036
0.18 0 0 0 0 30.5726
0.185 0 0 0 0 29.6797
0.19 0 0 0 0 28.8222
0.195 0 0 0 0 27.9981
0.2 0 0 0 0 27.2049
0.205 0 0 0 0 26.4407
0.21 0 0 0 0 25.7034
0.215 0 0 0 0 24.9913
0.22 0 0 0 0 24.3025
0.225 0 0 0 0 23.6353
0.23 0 0 0 0 22.9881
0.235 0 0 0 0 22.3596
0.24 0 0 0 0 21.7482
0.245 0 0 0 0 21.1527
0.25 0 0 0 0 20.5718
0.255 0 0 0 0 20.0044
0.26 0 0 0 0 19.4495
0.265 0 0 0 0 18.906
0.27 0 0 0 0 18.3732
0.275 0 0 0 0 17.8501
0.28 0 0 0 0 17.3361
0.285 0 0 0 0 16.8304
0.29 0 0 0 0 16.3325
0.295 0 0 0 0 15.8419
0.3 0 0 0 0 15.358
0.305 0 0 0 0 14.8806
0.31 0 0 0 0 14.4093
0.315 0 0 0 0 13.9438
0.32 0 0 0 0 13.4839
0.325 0 0 0 0 13.0294
0.33 0 0 0 0 12.5803
0.335 0 0 0 0 12.1365
0.34 0 0 0 0 11.6981
0.345 0 0 0 0 11.2649
0.35 0 0 0 0 10.8372
0.355 0 0 0 0 10.4151
0.36 0 0 0 0 9.99861
0.365 0 0 0 0 9.58803
0.37 0 0 0 0 9.18353
0.375 0 0 0 0 8.78536
0.38 0 0 0 0 8.39375
0.385 0 0 0 0 8.00896
0.39 0 0 0 0 7.63128
0.395 0 0 0 0 7.26098
0.4 0 0 0 0 6.89833
0.405 0 0 0 0 6.54364
0.41 0 0 0 0 6.19716
0.415 0 0 0 0 5.85918
0.42 0 0 0 0 5.52993
0.425 0 0 0 0 5.20968
0.43 0 0 0 0 4.89864
0.435 0 0 0 0 4.59702
0.44 0 0 0 0 4.30499
0.445 0 0 0 0 4.02272
0.45 0 0 0 0 3.75033
0.455 0 0 0 0 3.48794
0.46 0 0 0 0 3.2356
0.465 0 0 0 0 2.99337
0.47 0 0 0 0 2.76126
0.475 0 0 0 0 2.53926
0.48 0 0 0 0 2.32732
0.485 0 0 0 0 2.12536
0.49 0 0 0 0 1.93329
0.495 0 0 0 0 1.75097
0.5 0 0 0 0 1.57825
0.505 0 0 0 0 1.41496
0.51 0 0 0 0 1.26089
0.515 0 0 0 0 1.11581
0.52 0 0 0 0 0.979503
0.525 0 0 0 0 0.851698
0.53 0 0 0 0 0.73213
0.535 0 0 0 0 0.620516
0.54 0 0 0 0 0.516567
0.545 0 0 0 0 0.419982
0.55 0 0 0 0 0.330456
0.555 0 0 0 0 0.247681
0.56 0 0 0 0 0.171346
0.565 0 0 0 0 0.101139
0.57 0 0 0 0 0.0367511
0.575 0 0 0 0 -0.0221255
0.58 0 0 0 0 -0.0757942
0.585 0 0 0 0 -0.124553
0.59 0 0 0 0 -0.168693
0.595 0 0 0 0 -0.2085
0.6 0 0 0 0 -0.244249
0.605 0 0 0 0 -0.276208
0.61 0 0 0 0 -0.304634
0.615 0 0 0 0 -0.329776
0.62 0 0 0 0 -0.35187
0.625 0 0 0 0 -0.371143
0.63 0 0 0 0 -0.387809
0.635 0 0 0 0 -0.402073
0.64 0 0 0 0 -0.414125
0.645 0 0 0 0 -0.424147
0.65 0 0 0 0 -0.432307
0.655 0 0 0 0 -0.438763
0.66 0 0 0 0 -0.443662
0.665 0 0 0 0 -0.447139
0.67 0 0 0 0 -0.449319
0.675 0 0 0 0 -0.450319
0.68 0 0 0 0 -0.450243
0.685 0 0 0 0 -0.449188
0.69 0 0 0 0 -0.447243
0.695 0 0 0 0 -0.444489
0.7 0 0 0 0 -0.441
0.705 0 0 0 0 -0.436842
0.71 0 0 0 0 -0.432077
0.715 0 0 0 0 -0.42676
0.72 0 0 0 0 -0.420943
0.725 0 0 0 0 -0.414674
0.73 0 0 0 0 -0.407995
0.735 0 0 0 0 -0.400946
0.74 0 0 0 0 -0.393565
0.745 0 0 0 0 -0.385886
0.75 0 0 0 0 -0.377942
0.755 0 0 0 0 -0.369764
0.76 0 0 0 0 -0.36138
0.765 0 0 0 0 -0.352819
0.77 0 0 0 0 -0.344104
0.775 0 0 0 0 -0.335262
0.78 0 0 0 0 -0.326315
0.785 0 0 0 0 -0.317284
0.79 0 0 0 0 -0.30819
0.795 0 0 0 0 -0.299053
0.8 0 0 0 0 -0.289889
0.805 0 0 0 0 -0.280715
0.81 0 0 0 0 -0.271546
0.815 0 0 0 0 -0.262396
0.82 0 0 0 0 -0.253275
0.825 0 0 0 0 -0.244195
0.83 0 0 0 0 -0.235164
0.835 0 0 0 0 -0.22619
0.84 0 0 0 0 -0.217279
0.845 0 0 0 0 -0.208436
0.85 0 0 0 0 -0.199663
0.855 0 0 0 0 -0.190963
0.86 0 0 0 0 -0.182338
0.865 0 0 0 0 -0.173786
0.87 0 0 0 0 -0.165308
0.875 0 0 0 0 -0.156903
0.88 0 0 0 0 -0.148568
0.885 0 0 0 0 -0.140303
0.89 0 0 0 0 -0.132106
0.895 0 0 0 0 -0.123976
0.9 0 0 0 0 -0.115913
0.905 0 0 0 0 -0.107919
0.91 0 0 0 0 -0.0999963
0.915 0 0 0 0 -0.09215
0.92 0 0 0 0 -0.084388
0.925 0 0 0 0 -0.0767214
0.93 0 0 0 0 -0.0691649
0.935 0 0 0 0 -0.0617378
0.94 0 0 0 0 -0.0544648
0.945 0 0 0 0 -0.0473765
0.95 0 0 0 0 -0.0405109
0.955 0 0 0 0 -0.0339138
0.96 0 0 0 0 -0.0276402
0.965 0 0 0 0 -0.0217554
0.97 0 0 0 0 -0.0163362
0.975 0 0 0 0 -0.0114715
0.98 0 0 0 0 -0.00726229
0.985 0 0 0 0 -0.00381982
0.99 0 0 0 0 -0.00125825
0.995 0 0 0 0 0.000324285
1 0 0 0 0 0.000893439
0 0.005 0 0 0 0
0.005 0.005 0 0 0 0
0.01 0.005 0 0 0 73.7246
0.015 0.005 0 0 0 61.9808
0.02 0.005 0 0 0 45.5186
0.025 0.005 0 0 0 33.6856
0.03 0.005 0 0 0 25.8037
0.035 0.005 0 0 0 20.4683
0.04 0.005 0 0 0 16.7172
0.045 0.005 0 0 0 13.9757
0.05 0.005 0 0 0 11.9039
0.055 0.005 0 0 0 10.2951
0.06 0.005 0 0 0 9.01827
0.065 0.005 0 0 0 7.98695
0.07 0.005 0 0 0 7.14184
0.075 0.005 0 0 0 6.44099
0.08 0.005 0 0 0 5.85389
0.085 0.005 0 0 0 5.35783
0.09 0.005 0 0 0 4.9356
0.095 0.005 0 0 0 4.57391
0.1 0.005 0 0 0 4.26236
0.105 0.005 0 0 0 3.99271
0.11 0.005 0 0 0 3.75836
0.115 0.005 0 0 0 3.55398
0.12 0.005 0 0 0 3.37518
0.125 0.005 0 0 0 3.21839
0.13 0.005 0 0 0 3.08062
0.135 0.005 0 0 0 2.95937
0.14 0.005 0 0 0 2.85256
0.145 0.005 0 0 0 2.75841
0.15 0.005 0 0 0 2.6754
0.155 0.005 0 0 0 2.60225
0.16 0.005 0 0 0 2.53784
0.165 0.005 0 0 0 2.48121
0.17 0.005 0 0 0 2.43153
0.175 0.005 0 0 0 2.38805
0.18 0.005 0 0 0 2.35016
0.185 0.005 0 0 0 2.31727
0.19 0.005 0 0 0 2.28889
0.195 0.005 0 0 0 2.26458
0.2 0.005 0 0 0 2.24394
0.205 0.005 0 0 0 2.22661
0.21 0.005 0 0 0 2.21229
0.215 0.005 0 0 0 2.20067
0.22 0.005 0 0 0 2.19151
0.225 0.005 0 0 0 2.18456
0.23 0.005 0 0 0 2.17962
0.235 0.005 0 0 0 2.17647
0.24 0.005 0 0 0 2.17494
0.245 0.005 0 0 0 2.17486
0.25 0.005 0 0 0 2.17607
0.255 0.005 0 0 0 2.17844
0.26 0.005 0 0 0 2.18182
0.265 0.005 0 0 0 2.18609
0.27 0.005 0 0 0 2.19114
0.275 0.005 0 0 0 2.19684
0.28 0.005 0 0 0 2.20311
0.285 0.005 0 0 0 2.20983
0.29 0.005 0 0 0 2.21692
0.295 0.005 0 0 0 2.22428
0.3 0.005 0 0 0 2.23184
0.305 0.005 0 0 0 2.23952
0.31 0.005 0 0 0 2.24723
0.315 0.005 0 0 0 2.25491
0.32 0.005 0 0 0 2.26248
0.325 0.005 0 0 0 2.26989
0.33 0.005 0 0 0 2.27706
0.335 0.005 0 0 0 2.28394
0.34 0.005 0 0 0 2.29048
0.345 0.005 0 0 0 2.29662
0.35 0.005 0 0 0 2.3023
0.355 0.005 0 0 0 2.30749
0.36 0.005 0 0 0 2.31212
0.365 0.005 0 0 0 2.31617
0.37 0.005 0 0 0 2.31959
0.375 0.005 0 0 0 2.32234
0.38 0.005 0 0 0 2.32439
0.385 0.005 0 0 0 2.3257
0.39 0.005 0 0 0 2.32625
0.395 0.005 0 0 0 2.326
0.4 0.005 0 0 0 2.32493
0.405 0.005 0 0 0 2.32302
0.41 0.005 0 0 0 2.32025
0.415 0.005 0 0 0 2.31659
0.42 0.005 0 0 0 2.31204
0.425 0.005 0 0 0 2.30658
0.43 0.005 0 0 0 2.3002
0.435 0.005 0 0 0 2.2929
0.44 0.005 0 0 0 2.28466
0.445 0.005 0 0 0 2.27548
0.45 0.005 0 0 0 2.26537
0.455 0.005 0 0 0 2.25431
0.46 0.005 0 0 0 2.24233
0.465 0.005 0 0 0 2.22942
0.47 0.005 0 0 0 2.21558
0.475 0.005 0 0 0 2.20084
0.48 0.005 0 0 0 2.18519
0.485 0.005 0 0 0 2.16866
0.49 0.005 0 0 0 2.15126
0.495 0.005 0 0 0 2.13301
0.5 0.005 0 0 0 2.11392
0.505 0.005 0 0 0 2.09401
0.51 0.005 0 0 0 2.07331
0.515 0.005 0 0 0 2.05183
0.52 0.005 0 0 0 2.02961
0.525 0.005 0 0 0 2.00667
0.53 0.005 0 0 0 1.98303
0.535 0.005 0 0 0 1.95872
0.54 0.005 0 0 0 1.93377
0.545 0.005 0 0 0 1.90821
0.55 0.005 0 0 0 1.88207
0.555 0.005 0 0 0 1.85537
0.56 0.005 0 0 0 1.82815
0.565 0.005 0 0 0 1.80044
0.57 0.005 0 0 0 1.77227
0.575 0.005 0 0 0 1.74366
0.58 0.005 0 0 0 1.71466
0.585 0.005 0 0 0 1.68529
0.59 0.005 0 0 0 1.65559
0.595 0.005 0 0 0 1.62558
0.6 0.005 0 0 0 1.59529
0.605 0.005 0 0 0 1.56476
0.61 0.005 0 0 0 1.53402
0.615 0.005 0 0 0 1.50309
0.62 0.005 0 0 0 1.47201
0.625 0.005 0 0 0 1.4408
0.63 0.005 0 0 0 1.40949
0.635 0.005 0 0 0 1.37811
0.64 0.005 0 0 0 1.34669
0.645 0.005 0 0 0 1.31524
0.65 0.005 0 0 0 1.2838
0.655 0.005 0 0 0 1.2524
0.66 0.005 0 0 0 1.22104
0.665 0.005 0 0 0 1.18977
0.67 0.005 0 0 0 1.15859
0.675 0.005 0 0 0 1.12754
0.68 0.005 0 0 0 1.09663
0.685 0.005 0 0 0 1.06588
0.69 0.005 0 0 0 1.03531
0.695 0.005 0 0 0 1.00494
0.7 0.005 0 0 0 0.974784
0.705 0.005 0 0 0 0.944864
0.71 0.005 0 0 0 0.915194
0.715 0.005 0 0 0 0.88579
0.72 0.005 0 0 0 0.856666
0.725 0.005 0 0 0 0.827836
0.73 0.005 0 0 0 0.799314
0.735 0.005 0 0 0 0.771113
0.74 0.005 0 0 0 0.743247
0.745 0.005 0 0 0 0.715725
0.75 0.005 0 0 0 0.688562
0.755 0.005 0 0 0 0.661766
0.76 0.005 0 0 0 0.63535
0.765 0.005 0 0 0 0.609323
0.77 0.005 0 0 0 0.583696
0.775 0.005 0 0 0 0.558478
0.78 0.005 0 0 0 0.533678
0.785 0.005 0 0 0 0.509307
0.79 0.005 0 0 0 0.485373
0.795 0.005 0 0 0 0.461885
0.8 0.005 0 0 0 0.438851
0.805 0.005 0 0 0 0.416281
0.81 0.005 0 0 0 0.394183
0.815 0.005 0 0 0 0.372565
0.82 0.005 0 0 0 0.351437
0.825 0.005 0 0 0 0.330807
0.83 0.005 0 0 0 0.310683
0.835 0.005 0 0 0 0.291074
0.84 0.005 0 0 0 0.27199
0.845 0.005 0 0 0 0.253439
0.85 0.005 0 0 0 0.23543
0.855 0.005 0 0 0 0.217973
0.86 0.005 0 0 0 0.201078
0.865 0.005 0 0 0 0.184754
0.87 0.005 0 0 0 0.169011
0.875 0.005 0 0 0 0.153861
0.88 0.005 0 0 0 0.139313
0.885 0.005 0 0 0 0.12538
0.89 0.005 0 0 0 0.112072
0.895 0.005 0 0 0 0.0994021
0.9 0.005 0 0 0 0.0873825
0.905 0.005 0 0 0 0.0760263
0.91 0.005 0 0 0 0.0653469
0.915 0.005 0 0 0 0.0553586
0.92 0.005 0 0 0 0.0460759
0.925 0.005 0 0 0 0.0375137
0.93 0.005 0 0 0 0.0296876
0.935 0.005 0 0 0 0.0226131
0.94 0.005 0 0 0 0.016306
0.945 0.005 0 0 0 0.0107815
0.95 0.005 0 0 0 0.00605383
0.955 0.005 0 0 0 0.00213543
0.96 0.005 0 0 0 -0.000964785
0.965 0.005 0 0 0 -0.00324358
0.97 0.005 0 0 0 -0.00470701
0.975 0.005 0 0 0 -0.00537634
0.98 0.005 0 0 0 -0.0052976
0.985 0.005 0 0 0 -0.00455773
0.99 0.005 0 0 0 -0.0033115
0.995 0.005 0 0 0 -0.00182413
1 0.005 0 0 0 -0.000524928
0 0.01 0 0 -0.000524928 0
0.005 0.01 0 0 0 -326.275
0.01 0.01 -0.17995 0.077476 -0.000921558 -44.4788
0.015 0.01 -0.184467 -0.0352576 -0.00077476 9.44676
0.02 0.01 -0.15566 -0.035369 -0.000568982 19.0601
0.025 0.01 -0.126688 -0.0246435 -0.00042107 18.9653
0.03 0.01 -0.103436 -0.0165217 -0.000322546 16.844
0.035 0.01 -0.0856425 -0.0113582 -0.000255853 14.5809
0.04 0.01 -0.0720458 -0.00811578 -0.000208965 12.606
0.045 0.01 -0.0615218 -0.00601662 -0.000174696 10.968
0.05 0.01 -0.053241 -0.0046007 -0.000148798 9.62402
0.055 0.01 -0.0466194 -0.003607 -0.000128689 8.51866
0.06 0.01 -0.0412471 -0.00288516 -0.000112728 7.60331
0.065 0.01 -0.0368328 -0.00234553 -9.98368e-05 6.83929
0.07 0.01 -0.0331658 -0.00193244 -8.92729e-05 6.1966
0.075 0.01 -0.0300904 -0.00160993 -8.05122e-05 5.65205
0.08 0.01 -0.02749 -0.00135393 -7.31734e-05 5.18763
0.085 0.01 -0.0252753 -0.00114784 -6.69728e-05 4.78922
0.09 0.01 -0.0233774 -0.000979891 -6.16949e-05 4.44563
0.095 0.01 -0.021742 -0.00084154 -5.71737e-05 4.14796
0.1 0.01 -0.020326 -0.000726484 -5.32793e-05 3.889
0.105 0.01 -0.0190949 -0.000629978 -4.99087e-05 3.6629
0.11 0.01 -0.0180206 -0.000548403 -4.69794e-05 3.46487
0.115 0.01 -0.0170803 -0.000478961 -4.44245e-05 3.29097
0.12 0.01 -0.0162552 -0.000419467 -4.21896e-05 3.13789
0.125 0.01 -0.0155294 -0.000368191 -4.02297e-05 3.0029
0.13 0.01 -0.0148901 -0.000323757 -3.85076e-05 2.88368
0.135 0.01 -0.0143261 -0.000285058 -3.6992e-05 2.77827
0.14 0.01 -0.0138281 -0.000251196 -3.56569e-05 2.68501
0.145 0.01 -0.0133883 -0.000221439 -3.448e-05 2.60248
0.15 0.01 -0.0129998 -0.000195186 -3.34424e-05 2.52944
0.155 0.01 -0.0126568 -0.000171939 -3.2528e-05 2.46485
0.16 0.01 -0.0123543 -0.000151286 -3.17229e-05 2.40778
0.165 0.01 -0.0120879 -0.000132882 -3.1015e-05 2.35743
0.17 0.01 -0.0118538 -0.000116435 -3.0394e-05 2.31311
0.175 0.01 -0.0116487 -0.000101702 -2.98506e-05 2.2742
0.18 0.01 -0.0114695 -8.8475e-05 -2.93769e-05 2.24015
0.185 0.01 -0.0113137 -7.65767e-05 -2.89658e-05 2.21049
0.19 0.01 -0.0111791 -6.58566e-05 -2.86111e-05 2.18478
0.195 0.01 -0.0110635 -5.61849e-05 -2.83072e-05 2.16265
0.2 0.01 -0.010965 -4.74501e-05 -2.80492e-05 2.14374
0.205 0.01 -0.0108822 -3.9556e-05 -2.78326e-05 2.12776
0.21 0.01 -0.0108134 -3.2419e-05 -2.76536e-05 2.11443
0.215 0.01 -0.0107573 -2.59666e-05 -2.75084e-05 2.10348
0.22 0.01 -0.0107128 -2.01354e-05 -2.73939e-05 2.0947
0.225 0.01 -0.0106786 -1.48703e-05 -2.73071e-05 2.08787
0.23 0.01 -0.0106538 -1.01227e-05 -2.72452e-05 2.0828
0.235 0.01 -0.0106374 -5.84999e-06 -2.72058e-05 2.07932
0.24 0.01 -0.0106287 -2.01473e-06 -2.71867e-05 2.07726
0.245 0.01 -0.0106267 1.41632e-06 -2.71857e-05 2.07647
0.25 0.01 -0.0106308 4.47256e-06 -2.72009e-05 2.07682
0.255 0.01 -0.0106402 7.18014e-06 -2.72305e-05 2.07816
0.26 0.01 -0.0106544 9.56238e-06 -2.72728e-05 2.0804
0.265 0.01 -0.0106728 1.16401e-05 -2.73262e-05 2.0834
0.27 0.01 -0.0106947 1.34321e-05 -2.73893e-05 2.08706
0.275 0.01 -0.0107196 1.49553e-05 -2.74606e-05 2.09129
0.28 0.01 -0.0107472 1.62249e-05 -2.75389e-05 2.09599
0.285 0.01 -0.0107768 1.72548e-05 -2.7623e-05 2.10107
0.29 0.01 -0.0108081 1.80578e-05 -2.77116e-05 2.10645
0.295 0.01 -0.0108406 1.86456e-05 -2.78037e-05 2.11205
0.3 0.01 -0.010874 1.90288e-05 -2.78982e-05 2.11779
0.305 0.01 -0.0109078 1.92176e-05 -2.79941e-05 2.1236
0.31 0.01 -0.0109417 1.92213e-05 -2.80905e-05 2.12942
0.315 0.01 -0.0109754 1.90488e-05 -2.81865e-05 2.13518
0.32 0.01 -0.0110085 1.87083e-05 -2.82812e-05 2.14082
0.325 0.01 -0.0110407 1.82078e-05 -2.83738e-05 2.14628
0.33 0.01 -0.0110718 1.75549e-05 -2.84635e-05 2.1515
0.335 0.01 -0.0111014 1.67569e-05 -2.85495e-05 2.15644
0.34 0.01 -0.0111293 1.5821e-05 -2.86312e-05 2.16105
0.345 0.01 -0.0111553 1.47541e-05 -2.87079e-05 2.16527
0.35 0.01 -0.0111791 1.35629e-05 -2.8779e-05 2.16906
0.355 0.01 -0.0112004 1.22541e-05 -2.88438e-05 2.17238
0.36 0.01 -0.0112191 1.08343e-05 -2.89018e-05 2.1752
0.365 0.01 -0.0112349 9.3099e-06 -2.89524e-05 2.17747
0.37 0.01 -0.0112477 7.68736e-06 -2.89951e-05 2.17916
0.375 0.01 -0.0112574 5.97307e-06 -2.90295e-05 2.18024
0.38 0.01 -0.0112636 4.17339e-06 -2.90551e-05 2.18067
0.385 0.01 -0.0112663 2.29466e-06 -2.90715e-05 2.18044
0.39 0.01 -0.0112654 3.43181e-07 -2.90784e-05 2.17951
0.395 0.01 -0.0112607 -1.67476e-06 -2.90753e-05 2.17786
0.4 0.01 -0.0112521 -3.75288e-06 -2.90619e-05 2.17548
0.405 0.01 -0.0112395 -5.88494e-06 -2.9038e-05 2.17234
0.41 0.01 -0.0112228 -8.06473e-06 -2.90034e-05 2.16842
0.415 0.01 -0.0112019 -1.02861e-05 -2.89577e-05 2.16372
0.42 0.01 -0.0111768 -1.25428e-05 -2.89008e-05 2.15821
0.425 0.01 -0.0111474 -1.48288e-05 -2.88326e-05 2.1519
0.43 0.01 -0.0111136 -1.71381e-05 -2.87529e-05 2.14477
0.435 0.01 -0.0110755 -1.94647e-05 -2.86615e-05 2.13682
0.44 0.01 -0.011033 -2.18028e-05 -2.85585e-05 2.12804
0.445 0.01 -0.010986 -2.41466e-05 -2.84438e-05 2.11844
0.45 0.01 -0.0109346 -2.64903e-05 -2.83174e-05 2.10801
0.455 0.01 -0.0108789 -2.88285e-05 -2.81793e-05 2.09676
0.46 0.01 -0.0108187 -3.11557e-05 -2.80295e-05 2.08468
0.465 0.01 -0.0107542 -3.34667e-05 -2.7868e-05 2.0718
0.47 0.01 -0.0106854 -3.57563e-05 -2.76951e-05 2.0581
0.475 0.01 -0.0106123 -3.80196e-05 -2.75108e-05 2.04362
0.48 0.01 -0.010535 -4.02518e-05 -2.73153e-05 2.02834
0.485 0.01 -0.0104535 -4.24485e-05 -2.71086e-05 2.0123
0.49 0.01 -0.010368 -4.46051e-05 -2.68911e-05 1.9955
0.495 0.01 -0.0102785 -4.67175e-05 -2.66629e-05 1.97796
0.5 0.01 -0.0101851 -4.87818e-05 -2.64243e-05 1.95969
0.505 0.01 -0.0100878 -5.07944e-05 -2.61754e-05 1.94071
0.51 0.01 -0.0099869 -5.27516e-05 -2.59167e-05 1.92105
0.515 0.01 -0.00988237 -5.46503e-05 -2.56483e-05 1.90072
0.52 0.01 -0.00977435 -5.64876e-05 -2.53705e-05 1.87975
0.525 0.01 -0.00966298 -5.82605e-05 -2.50837e-05 1.85816
0.53 0.01 -0.00954836 -5.99668e-05 -2.47882e-05 1.83596
0.535 0.01 -0.00943063 -6.1604e-05 -2.44844e-05 1.8132
0.54 0.01 -0.00930993 -6.31703e-05 -2.41725e-05 1.78988
0.545 0.01 -0.00918638 -6.46639e-05 -2.3853e-05 1.76603
0.55 0.01 -0.00906012 -6.60834e-05 -2.35262e-05 1.74169
0.555 0.01 -0.00893131 -6.74274e-05 -2.31924e-05 1.71688
0.56 0.01 -0.00880006 -6.8695e-05 -2.28522e-05 1.69162
0.565 0.01 -0.00866654 -6.98855e-05 -2.25058e-05 1.66594
0.57 0.01 -0.00853089 -7.09983e-05 -2.21536e-05 1.63986
0.575 0.01 -0.00839325 -7.20332e-05 -2.17961e-05 1.61342
0.58 0.01 -0.00825377 -7.299e-05 -2.14335e-05 1.58665
0.585 0.01 -0.00811259 -7.38688e-05 -2.10664e-05 1.55956
0.59 0.01 -0.00796986 -7.46701e-05 -2.06951e-05 1.53219
0.595 0.01 -0.00782573 -7.53943e-05 -2.032e-05 1.50456
0.6 0.01 -0.00768033 -7.60421e-05 -1.99414e-05 1.4767
0.605 0.01 -0.00753381 -7.66143e-05 -1.95598e-05 1.44864
0.61 0.01 -0.00738631 -7.7112e-05 -1.91755e-05 1.4204
0.615 0.01 -0.00723797 -7.75364e-05 -1.87889e-05 1.39201
0.62 0.01 -0.00708892 -7.78887e-05 -1.84004e-05 1.36348
0.625 0.01 -0.0069393 -7.81704e-05 -1.80102e-05 1.33486
0.63 0.01 -0.00678923 -7.83829e-05 -1.76189e-05 1.30615
0.635 0.01 -0.00663885 -7.85279e-05 -1.72266e-05 1.2774
0.64 0.01 -0.00648827 -7.86071e-05 -1.68338e-05 1.2486
0.645 0.01 -0.00633762 -7.86223e-05 -1.64407e-05 1.2198
0.65 0.01 -0.00618702 -7.85752e-05 -1.60477e-05 1.19101
0.655 0.01 -0.00603659 -7.84678e-05 -1.56551e-05 1.16226
0.66 0.01 -0.00588642 -7.83019e-05 -1.52632e-05 1.13355
0.665 0.01 -0.00573663 -7.80795e-05 -1.48723e-05 1.10492
0.67 0.01 -0.00558732 -7.78026e-05 -1.44826e-05 1.07639
0.675 0.01 -0.0054386 -7.74731e-05 -1.40944e-05 1.04796
0.68 0.01 -0.00529056 -7.7093e-05 -1.3708e-05 1.01967
0.685 0.01 -0.00514329 -7.66641e-05 -1.33236e-05 0.991522
0.69 0.01 -0.00499688 -7.61884e-05 -1.29415e-05 0.963537
0.695 0.01 -0.00485142 -7.56677e-05 -1.25618e-05 0.935732
0.7 0.01 -0.00470698 -7.51039e-05 -1.21849e-05 0.908121
0.705 0.01 -0.00456366 -7.44988e-05 -1.18109e-05 0.880721
0.71 0.01 -0.00442153 -7.38541e-05 -1.144e-05 0.853544
0.715 0.01 -0.00428065 -7.31714e-05 -1.10725e-05 0.826605
0.72 0.01 -0.0041411 -7.24524e-05 -1.07084e-05 0.799916
0.725 0.01 -0.00400294 -7.16986e-05 -1.0348e-05 0.773491
0.73 0.01 -0.00386625 -7.09115e-05 -9.9915e-06 0.747341
0.735 0.01 -0.00373107 -7.00923e-05 -9.63899e-06 0.721479
0.74 0.01 -0.00359748 -6.92425e-05 -9.29065e-06 0.695914
0.745 0.01 -0.00346552 -6.83632e-05 -8.94663e-06 0.670658
0.75 0.01 -0.00333525 -6.74556e-05 -8.60708e-06 0.645722
0.755 0.01 -0.00320674 -6.65207e-05 -8.27213e-06 0.621115
0.76 0.01 -0.00308001 -6.55594e-05 -7.94192e-06 0.596848
0.765 0.01 -0.00295513 -6.45727e-05 -7.61658e-06 0.572929
0.77 0.01 -0.00283215 -6.35613e-05 -7.29624e-06 0.549368
0.775 0.01 -0.00271111 -6.25259e-05 -6.98101e-06 0.526173
0.78 0.01 -0.00259205 -6.14671e-05 -6.67102e-06 0.503354
0.785 0.01 -0.00247502 -6.03854e-05 -6.36637e-06 0.480919
0.79 0.01 -0.00236007 -5.92813e-05 -6.06719e-06 0.458876
0.795 0.01 -0.00224723 -5.81551e-05 -5.77358e-06 0.437234
0.8 0.01 -0.00213655 -5.70071e-05 -5.48566e-06 0.416001
0.805 0.01 -0.00202808 -5.58374e-05 -5.20353e-06 0.395185
0.81 0.01 -0.00192184 -5.46463e-05 -4.9273e-06 0.374794
0.815 0.01 -0.00181789 -5.34337e-05 -4.65708e-06 0.354836
0.82 0.01 -0.00171627 -5.21996e-05 -4.39297e-06 0.33532
0.825 0.01 -0.00161702 -5.09439e-05 -4.13509e-06 0.316253
0.83 0.01 -0.00152017 -4.96663e-05 -3.88354e-06 0.297645
0.835 0.01 -0.00142579 -4.83667e-05 -3.63843e-06 0.279502
0.84 0.01 -0.00133389 -4.70448e-05 -3.39988e-06 0.261834
0.845 0.01 -0.00124454 -4.57e-05 -3.16799e-06 0.244649
0.85 0.01 -0.00115778 -4.4332e-05 -2.94288e-06 0.227956
0.855 0.01 -0.00107364 -4.29402e-05 -2.72466e-06 0.211764
0.86 0.01 -0.000992185 -4.15241e-05 -2.51347e-06 0.196082
0.865 0.01 -0.000913455 -4.00828e-05 -2.30942e-06 0.180919
0.87 0.01 -0.000837501 -3.86157e-05 -2.11264e-06 0.166285
0.875 0.01 -0.000764373 -3.7122e-05 -1.92326e-06 0.15219
0.88 0.01 -0.000694124 -3.56007e-05 -1.74141e-06 0.138644
0.885 0.01 -0.000626807 -3.40509e-05 -1.56724e-06 0.125656
0.89 0.01 -0.000562479 -3.24714e-05 -1.40089e-06 0.113239
0.895 0.01 -0.000501196 -3.08612e-05 -1.24252e-06 0.101402
0.9 0.01 -0.000443018 -2.9219e-05 -1.09227e-06 0.0901571
0.905 0.01 -0.000388007 -2.75436e-05 -9.5032e-07 0.0795155
0.91 0.01 -0.000336225 -2.58337e-05 -8.16829e-07 0.0694889
0.915 0.01 -0.000287737 -2.40881e-05 -6.91975e-07 0.0600892
0.92 0.01 -0.000242609 -2.23054e-05 -5.75941e-07 0.0513284
0.925 0.01 -0.000200909 -2.04846e-05 -4.68914e-07 0.0432183
0.93 0.01 -0.000162705 -1.8625e-05 -3.71088e-07 0.0357705
0.935 0.01 -0.000128063 -1.67263e-05 -2.82657e-07 0.0289962
0.94 0.01 -9.70498e-05 -1.47889e-05 -2.03819e-07 0.0229056
0.945 0.01 -6.97249e-05 -1.28146e-05 -1.34763e-07 0.0175072
0.95 0.01 -4.61413e-05 -1.0807e-05 -7.56683e-08 0.0128075
0.955 0.01 -2.63387e-05 -8.77281e-06 -2.6689e-08 0.0088093
0.96 0.01 -1.03364e-05 -6.72338e-06 1.2063e-08 0.00551017
0.965 0.01 1.8781e-06 -4.67746e-06 4.05473e-08 0.00290011
0.97 0.01 1.03654e-05 -2.66569e-06 5.88397e-08 0.000957977
0.975 0.01 1.52597e-05 -7.38031e-07 6.72056e-08 -0.000353487
0.98 0.01 1.68067e-05 1.0234e-06 6.62209e-08 -0.00109453
0.985 0.01 1.54206e-05 2.48272e-06 5.69722e-08 -0.00135734
0.99 0.01 1.17676e-05 3.41706e-06 4.13939e-08 -0.00127501
0.995 0.01 6.87946e-06 3.48323e-06 2.28016e-08 -0.00102177
1 0.01 2.27631e-06 2.28016e-06 6.56154e-09 -0.000772747
0 0.015 0 0 -0.00182105 0
0.005 0.015 0 0 0 -256.04
0.01 0.015 -0.152627 0.184467 -0.0017995 -79.3581
0.015 0.015 -0.205629 -0.0242902 -0.00184467 -16.6706
0.02 0.015 -0.20368 -0.0577786 -0.0015566 2.39691
0.025 0.015 -0.183679 -0.0522237 -0.00126688 8.09422
0.03 0.015 -0.160587 -0.041046 -0.00103436 9.47279
0.035 0.015 -0.139374 -0.0313905 -0.000856425 9.38281
0.04 0.015 -0.121242 -0.0241206 -0.000720458 8.80644
0.045 0.015 -0.106119 -0.0188048 -0.000615218 8.10322
0.05 0.015 -0.0935806 -0.0149024 -0.00053241 7.40702
0.055 0.015 -0.0831646 -0.0119939 -0.000466194 6.76517
0.06 0.015 -0.0744673 -0.00978652 -0.000412471 6.19078
0.065 0.015 -0.0671597 -0.0080813 -0.000368328 5.68347
0.07 0.015 -0.0609799 -0.00674239 -0.000331657 5.23792
0.075 0.015 -0.0557216 -0.00567576 -0.000300904 4.84731
0.08 0.015 -0.0512214 -0.00481503 -0.000274899 4.50483
0.085 0.015 -0.0473498 -0.00411253 -0.000252753 4.20422
0.09 0.015 -0.044003 -0.0035333 -0.000233773 3.93992
0.095 0.015 -0.0410975 -0.00305136 -0.000217419 3.70715
0.1 0.015 -0.0385655 -0.00264705 -0.000203259 3.50176
0.105 0.015 -0.0363515 -0.00230531 -0.000190948 3.32022
0.11 0.015 -0.03441 -0.00201448 -0.000180206 3.1595
0.115 0.015 -0.032703 -0.00176541 -0.000170803 3.017
0.12 0.015 -0.0311991 -0.00155086 -0.000162551 2.89051
0.125 0.015 -0.0298717 -0.00136505 -0.000155294 2.77813
0.13 0.015 -0.0286986 -0.00120333 -0.0001489 2.6782
0.135 0.015 -0.0276608 -0.00106192 -0.00014326 2.58931
0.14 0.015 -0.0267421 -0.00093775 -0.000138281 2.51023
0.145 0.015 -0.0259288 -0.00082828 -0.000133882 2.43988
0.15 0.015 -0.0252088 -0.000731419 -0.000129997 2.37734
0.155 0.015 -0.0245719 -0.000645426 -0.000126568 2.32179
0.16 0.015 -0.0240091 -0.000568846 -0.000123543 2.27251
0.165 0.015 -0.0235126 -0.000500458 -0.000120879 2.22887
0.17 0.015 -0.0230755 -0.000439229 -0.000118538 2.1903
0.175 0.015 -0.0226919 -0.000384286 -0.000116486 2.15631
0.18 0.015 -0.0223563 -0.000334885 -0.000114695 2.12645
0.185 0.015 -0.022064 -0.00029039 -0.000113137 2.10034
0.19 0.015 -0.0218109 -0.000250257 -0.000111791 2.07761
0.195 0.015 -0.0215931 -0.000214015 -0.000110634 2.05794
0.2 0.015 -0.0214073 -0.00018126 -0.00010965 2.04106
0.205 0.015 -0.0212505 -0.00015164 -0.000108822 2.02669
0.21 0.015 -0.0211198 -0.000124851 -0.000108134 2.0146
0.215 0.015 -0.0210129 -0.000100625 -0.000107573 2.00458
0.22 0.015 -0.0209274 -7.87319e-05 -0.000107128 1.99642
0.225 0.015 -0.0208613 -5.89666e-05 -0.000106786 1.98994
0.23 0.015 -0.0208126 -4.11502e-05 -0.000106538 1.98499
0.235 0.015 -0.0207796 -2.51251e-05 -0.000106375 1.9814
0.24 0.015 -0.0207608 -1.07518e-05 -0.000106287 1.97903
0.245 0.015 -0.0207546 2.09336e-06 -0.000106267 1.97775
0.25 0.015 -0.0207597 1.35201e-05 -0.000106308 1.97744
0.255 0.015 -0.0207747 2.36263e-05 -0.000106403 1.97799
0.26 0.015 -0.0207984 3.24996e-05 -0.000106545 1.97928
0.265 0.015 -0.0208298 4.02184e-05 -0.000106728 1.98122
0.27 0.015 -0.0208678 4.68534e-05 -0.000106947 1.98371
0.275 0.015 -0.0209114 5.24687e-05 -0.000107197 1.98667
0.28 0.015 -0.0209596 5.71222e-05 -0.000107472 1.99001
0.285 0.015 -0.0210116 6.0867e-05 -0.000107768 1.99365
0.29 0.015 -0.0210665 6.37515e-05 -0.000108081 1.99752
0.295 0.015 -0.0211236 6.58204e-05 -0.000108407 2.00155
0.3 0.015 -0.0211821 6.71152e-05 -0.00010874 2.00567
0.305 0.015 -0.0212413 6.76743e-05 -0.000109078 2.00982
0.31 0.015 -0.0213005 6.75338e-05 -0.000109417 2.01394
0.315 0.015 -0.0213591 6.67278e-05 -0.000109754 2.01798
0.32 0.015 -0.0214164 6.52885e-05 -0.000110085 2.02187
0.325 0.015 -0.021472 6.32467e-05 -0.000110408 2.02557
0.33 0.015 -0.0215251 6.06318e-05 -0.000110719 2.02903
0.335 0.015 -0.0215754 5.74723e-05 -0.000111015 2.03221
0.34 0.015 -0.0216223 5.37956e-05 -0.000111294 2.03507
0.345 0.015 -0.0216653 4.96286e-05 -0.000111554 2.03755
0.35 0.015 -0.021704 4.49976e-05 -0.000111791 2.03963
0.355 0.015 -0.021738 3.99281e-05 -0.000112005 2.04127
0.36 0.015 -0.0217669 3.44455e-05 -0.000112192 2.04243
0.365 0.015 -0.0217903 2.85749e-05 -0.00011235 2.04308
0.37 0.015 -0.0218079 2.2341e-05 -0.000112478 2.04321
0.375 0.015 -0.0218194 1.57684e-05 -0.000112575 2.04277
0.38 0.015 -0.0218243 8.88139e-06 -0.000112637 2.04174
0.385 0.015 -0.0218226 1.70425e-06 -0.000112665 2.04011
0.39 0.015 -0.0218138 -5.73894e-06 -0.000112655 2.03785
0.395 0.015 -0.0217979 -1.34242e-05 -0.000112608 2.03494
0.4 0.015 -0.0217745 -2.13277e-05 -0.000112522 2.03136
0.405 0.015 -0.0217436 -2.94258e-05 -0.000112396 2.02711
0.41 0.015 -0.0217048 -3.76949e-05 -0.000112229 2.02217
0.415 0.015 -0.0216582 -4.61117e-05 -0.00011202 2.01652
0.42 0.015 -0.0216035 -5.4653e-05 -0.000111769 2.01017
0.425 0.015 -0.0215407 -6.3296e-05 -0.000111475 2.0031
0.43 0.015 -0.0214697 -7.2018e-05 -0.000111138 1.99531
0.435 0.015 -0.0213904 -8.07968e-05 -0.000110756 1.9868
0.44 0.015 -0.0213028 -8.96104e-05 -0.000110331 1.97756
0.445 0.015 -0.021207 -9.84373e-05 -0.000109861 1.96759
0.45 0.015 -0.0211028 -0.000107256 -0.000109348 1.95691
0.455 0.015 -0.0209904 -0.000116047 -0.00010879 1.9455
0.46 0.015 -0.0208697 -0.000124789 -0.000108189 1.93338
0.465 0.015 -0.0207409 -0.000133464 -0.000107544 1.92056
0.47 0.015 -0.020604 -0.000142051 -0.000106855 1.90704
0.475 0.015 -0.020459 -0.000150534 -0.000106124 1.89282
0.48 0.015 -0.0203063 -0.000158893 -0.000105351 1.87793
0.485 0.015 -0.0201457 -0.000167114 -0.000104537 1.86238
0.49 0.015 -0.0199776 -0.000175179 -0.000103681 1.84617
0.495 0.015 -0.019802 -0.000183074 -0.000102786 1.82933
0.5 0.015 -0.0196191 -0.000190784 -0.000101852 1.81187
0.505 0.015 -0.0194291 -0.000198295 -0.00010088 1.7938
0.51 0.015 -0.0192322 -0.000205596 -9.98703e-05 1.77514
0.515 0.015 -0.0190287 -0.000212674 -9.8825e-05 1.75591
0.52 0.015 -0.0188186 -0.000219518 -9.77448e-05 1.73614
0.525 0.015 -0.0186024 -0.000226119 -9.6631e-05 1.71584
0.53 0.015 -0.0183801 -0.000232468 -9.54848e-05 1.69503
0.535 0.015 -0.018152 -0.000238556 -9.43076e-05 1.67373
0.54 0.015 -0.0179184 -0.000244377 -9.31005e-05 1.65197
0.545 0.015 -0.0176796 -0.000249924 -9.1865e-05 1.62976
0.55 0.015 -0.0174357 -0.000255192 -9.06024e-05 1.60713
0.555 0.015 -0.0171871 -0.000260178 -8.93142e-05 1.58411
0.56 0.015 -0.016934 -0.000264877 -8.80018e-05 1.56071
0.565 0.015 -0.0166767 -0.000269286 -8.66665e-05 1.53695
0.57 0.015 -0.0164155 -0.000273405 -8.531e-05 1.51287
0.575 0.015 -0.0161506 -0.000277232 -8.39336e-05 1.48849
0.58 0.015 -0.0158823 -0.000280767 -8.25387e-05 1.46382
0.585 0.015 -0.015611 -0.000284011 -8.11269e-05 1.4389
0.59 0.015 -0.0153367 -0.000286965 -7.96996e-05 1.41374
0.595 0.015 -0.0150599 -0.000289631 -7.82582e-05 1.38837
0.6 0.015 -0.0147808 -0.000292012 -7.68042e-05 1.36281
0.605 0.015 -0.0144996 -0.000294112 -7.5339e-05 1.33708
0.61 0.015 -0.0142166 -0.000295933 -7.3864e-05 1.31121
0.615 0.015 -0.0139321 -0.000297481 -7.23806e-05 1.28521
0.62 0.015 -0.0136464 -0.00029876 -7.08901e-05 1.25912
0.625 0.015 -0.0133596 -0.000299775 -6.93938e-05 1.23294
0.63 0.015 -0.013072 -0.000300533 -6.78931e-05 1.20671
0.635 0.015 -0.0127838 -0.000301039 -6.63892e-05 1.18043
0.64 0.015 -0.0124954 -0.0003013 -6.48835e-05 1.15413
0.645 0.015 -0.0122068 -0.000301321 -6.3377e-05 1.12784
0.65 0.015 -0.0119184 -0.000301111 -6.18709e-05 1.10156
0.655 0.015 -0.0116303 -0.000300676 -6.03665e-05 1.07532
0.66 0.015 -0.0113428 -0.000300022 -5.88648e-05 1.04913
0.665 0.015 -0.011056 -0.000299158 -5.73669e-05 1.02301
0.67 0.015 -0.0107701 -0.00029809 -5.58738e-05 0.996979
0.675 0.015 -0.0104854 -0.000296825 -5.43866e-05 0.971051
0.68 0.015 -0.010202 -0.000295371 -5.29061e-05 0.945242
0.685 0.015 -0.00992004 -0.000293734 -5.14334e-05 0.919567
0.69 0.015 -0.00963973 -0.000291923 -4.99693e-05 0.894039
0.695 0.015 -0.00936123 -0.000289942 -4.85146e-05 0.868673
0.7 0.015 -0.00908469 -0.000287801 -4.70703e-05 0.843483
0.705 0.015 -0.00881026 -0.000285503 -4.5637e-05 0.81848
0.71 0.015 -0.00853808 -0.000283058 -4.42157e-05 0.793677
0.715 0.015 -0.00826828 -0.000280469 -4.28068e-05 0.769087
0.72 0.015 -0.008001 -0.000277743 -4.14113e-05 0.74472
0.725 0.015 -0.00773637 -0.000274887 -4.00297e-05 0.720588
0.73 0.015 -0.0074745 -0.000271904 -3.86628e-05 0.696701
0.735 0.015 -0.00721551 -0.0002688 -3.7311e-05 0.67307
0.74 0.015 -0.00695951 -0.00026558 -3.5975e-05 0.649704
0.745 0.015 -0.00670662 -0.000262249 -3.46554e-05 0.626614
0.75 0.015 -0.00645693 -0.000258809 -3.33528e-05 0.603808
0.755 0.015 -0.00621054 -0.000255266 -3.20676e-05 0.581295
0.76 0.015 -0.00596756 -0.000251623 -3.08003e-05 0.559085
0.765 0.015 -0.00572807 -0.000247882 -2.95515e-05 0.537185
0.77 0.015 -0.00549216 -0.000244046 -2.83217e-05 0.515604
0.775 0.015 -0.00525994 -0.000240118 -2.71112e-05 0.494351
0.78 0.015 -0.00503148 -0.000236101 -2.59206e-05 0.473432
0.785 0.015 -0.00480687 -0.000231996 -2.47503e-05 0.452857
0.79 0.015 -0.00458619 -0.000227804 -2.36008e-05 0.432632
0.795 0.015 -0.00436952 -0.000223526 -2.24724e-05 0.412766
0.8 0.015 -0.00415696 -0.000219164 -2.13656e-05 0.393266
0.805 0.015 -0.00394857 -0.000214719 -2.02808e-05 0.374139
0.81 0.015 -0.00374444 -0.00021019 -1.92185e-05 0.355394