Title=" Lid Driven Flow"
VARIABLES="X","Y","U","V","psi","xi"
ZONE T= "BOX", I= 201, J=201, F=POINT
0 0 0 0 0.000367675 0
0.005 0 0 0 0 0
0.01 0 0 0 0 0
0.015 0 0 0 0 161.888
0.02 0 0 0 0 176.135
0.025 0 0 0 0 155.657
0.03 0 0 0 0 133.326
0.035 0 0 0 0 115.87
0.04 0 0 0 0 103.074
0.045 0 0 0 0 93.5859
0.05 0 0 0 0 86.2895
0.055 0 0 0 0 80.4494
0.06 0 0 0 0 75.6061
0.065 0 0 0 0 71.4713
0.07 0 0 0 0 67.8588
0.075 0 0 0 0 64.6443
0.08 0 0 0 0 61.7418
0.085 0 0 0 0 59.0907
0.09 0 0 0 0 56.6466
0.095 0 0 0 0 54.3768
0.1 0 0 0 0 52.2567
0.105 0 0 0 0 50.2672
0.11 0 0 0 0 48.3937
0.115 0 0 0 0 46.6241
0.12 0 0 0 0 44.949
0.125 0 0 0 0 43.3604
0.13 0 0 0 0 41.8514
0.135 0 0 0 0 40.4163
0.14 0 0 0 0 39.0499
0.145 0 0 0 0 37.7477
0.15 0 0 0 0 36.5056
0.155 0 0 0 0 35.3196
0.16 0 0 0 0 34.1864
0.165 0 0 0 0 33.1026
0.17 0 0 0 0 32.0651
0.175 0 0 0 0 31.0709
0.18 0 0 0 0 30.1174
0.185 0 0 0 0 29.2018
0.19 0 0 0 0 28.3218
0.195 0 0 0 0 27.4748
0.2 0 0 0 0 26.6587
0.205 0 0 0 0 25.8713
0.21 0 0 0 0 25.1106
0.215 0 0 0 0 24.3747
0.22 0 0 0 0 23.6618
0.225 0 0 0 0 22.9701
0.23 0 0 0 0 22.2981
0.235 0 0 0 0 21.6443
0.24 0 0 0 0 21.0072
0.245 0 0 0 0 20.3856
0.25 0 0 0 0 19.7783
0.255 0 0 0 0 19.1842
0.26 0 0 0 0 18.6023
0.265 0 0 0 0 18.0316
0.27 0 0 0 0 17.4714
0.275 0 0 0 0 16.9209
0.28 0 0 0 0 16.3794
0.285 0 0 0 0 15.8464
0.29 0 0 0 0 15.3214
0.295 0 0 0 0 14.804
0.3 0 0 0 0 14.2939
0.305 0 0 0 0 13.7908
0.31 0 0 0 0 13.2944
0.315 0 0 0 0 12.8048
0.32 0 0 0 0 12.3219
0.325 0 0 0 0 11.8455
0.33 0 0 0 0 11.3759
0.335 0 0 0 0 10.913
0.34 0 0 0 0 10.4571
0.345 0 0 0 0 10.0082
0.35 0 0 0 0 9.56672
0.355 0 0 0 0 9.1328
0.36 0 0 0 0 8.70673
0.365 0 0 0 0 8.2888
0.37 0 0 0 0 7.87932
0.375 0 0 0 0 7.47861
0.38 0 0 0 0 7.08697
0.385 0 0 0 0 6.70473
0.39 0 0 0 0 6.3322
0.395 0 0 0 0 5.96967
0.4 0 0 0 0 5.61742
0.405 0 0 0 0 5.27573
0.41 0 0 0 0 4.94482
0.415 0 0 0 0 4.6249
0.42 0 0 0 0 4.31617
0.425 0 0 0 0 4.01877
0.43 0 0 0 0 3.73282
0.435 0 0 0 0 3.4584
0.44 0 0 0 0 3.19555
0.445 0 0 0 0 2.94427
0.45 0 0 0 0 2.70455
0.455 0 0 0 0 2.47632
0.46 0 0 0 0 2.25946
0.465 0 0 0 0 2.05385
0.47 0 0 0 0 1.85931
0.475 0 0 0 0 1.67564
0.48 0 0 0 0 1.50262
0.485 0 0 0 0 1.33999
0.49 0 0 0 0 1.18746
0.495 0 0 0 0 1.04474
0.5 0 0 0 0 0.911511
0.505 0 0 0 0 0.787431
0.51 0 0 0 0 0.672155
0.515 0 0 0 0 0.565327
0.52 0 0 0 0 0.46658
0.525 0 0 0 0 0.375546
0.53 0 0 0 0 0.291851
0.535 0 0 0 0 0.215124
0.54 0 0 0 0 0.144993
0.545 0 0 0 0 0.0810908
0.55 0 0 0 0 0.0230558
0.555 0 0 0 0 -0.0294678
0.56 0 0 0 0 -0.0768275
0.565 0 0 0 0 -0.119362
0.57 0 0 0 0 -0.157399
0.575 0 0 0 0 -0.191255
0.58 0 0 0 0 -0.221237
0.585 0 0 0 0 -0.247635
0.59 0 0 0 0 -0.270731
0.595 0 0 0 0 -0.290788
0.6 0 0 0 0 -0.308059
0.605 0 0 0 0 -0.322779
0.61 0 0 0 0 -0.335172
0.615 0 0 0 0 -0.345443
0.62 0 0 0 0 -0.353787
0.625 0 0 0 0 -0.36038
0.63 0 0 0 0 -0.365387
0.635 0 0 0 0 -0.368958
0.64 0 0 0 0 -0.37123
0.645 0 0 0 0 -0.372328
0.65 0 0 0 0 -0.372365
0.655 0 0 0 0 -0.371442
0.66 0 0 0 0 -0.369653
0.665 0 0 0 0 -0.367081
0.67 0 0 0 0 -0.3638
0.675 0 0 0 0 -0.35988
0.68 0 0 0 0 -0.355382
0.685 0 0 0 0 -0.350364
0.69 0 0 0 0 -0.344876
0.695 0 0 0 0 -0.338968
0.7 0 0 0 0 -0.332684
0.705 0 0 0 0 -0.326067
0.71 0 0 0 0 -0.319157
0.715 0 0 0 0 -0.311992
0.72 0 0 0 0 -0.304608
0.725 0 0 0 0 -0.29704
0.73 0 0 0 0 -0.289323
0.735 0 0 0 0 -0.281487
0.74 0 0 0 0 -0.273566
0.745 0 0 0 0 -0.265588
0.75 0 0 0 0 -0.257583
0.755 0 0 0 0 -0.249578
0.76 0 0 0 0 -0.241598
0.765 0 0 0 0 -0.233668
0.77 0 0 0 0 -0.22581
0.775 0 0 0 0 -0.218046
0.78 0 0 0 0 -0.210393
0.785 0 0 0 0 -0.202869
0.79 0 0 0 0 -0.195489
0.795 0 0 0 0 -0.188265
0.8 0 0 0 0 -0.181207
0.805 0 0 0 0 -0.174325
0.81 0 0 0 0 -0.167625
0.815 0 0 0 0 -0.16111
0.82 0 0 0 0 -0.154783
0.825 0 0 0 0 -0.148644
0.83 0 0 0 0 -0.14269
0.835 0 0 0 0 -0.136919
0.84 0 0 0 0 -0.131325
0.845 0 0 0 0 -0.125901
0.85 0 0 0 0 -0.120638
0.855 0 0 0 0 -0.115526
0.86 0 0 0 0 -0.110554
0.865 0 0 0 0 -0.10571
0.87 0 0 0 0 -0.100981
0.875 0 0 0 0 -0.0963531
0.88 0 0 0 0 -0.0918119
0.885 0 0 0 0 -0.087343
0.89 0 0 0 0 -0.0829319
0.895 0 0 0 0 -0.0785644
0.9 0 0 0 0 -0.0742269
0.905 0 0 0 0 -0.0699066
0.91 0 0 0 0 -0.065592
0.915 0 0 0 0 -0.0612734
0.92 0 0 0 0 -0.0569433
0.925 0 0 0 0 -0.0525967
0.93 0 0 0 0 -0.0482321
0.935 0 0 0 0 -0.0438517
0.94 0 0 0 0 -0.0394627
0.945 0 0 0 0 -0.0350776
0.95 0 0 0 0 -0.0307157
0.955 0 0 0 0 -0.0264036
0.96 0 0 0 0 -0.0221771
0.965 0 0 0 0 -0.0180823
0.97 0 0 0 0 -0.014177
0.975 0 0 0 0 -0.0105328
0.98 0 0 0 0 -0.00723612
0.985 0 0 0 0 -0.00438896
0.99 0 0 0 0 -0.00210683
0.995 0 0 0 0 -0.000509158
1 0 0 0 0 0.000310605
0 0.005 0 0 0 0
0.005 0.005 0 0 0 0
0.01 0.005 0 0 0 73.7232
0.015 0.005 0 0 0 61.9699
0.02 0.005 0 0 0 45.4978
0.025 0.005 0 0 0 33.6624
0.03 0.005 0 0 0 25.7873
0.035 0.005 0 0 0 20.4661
0.04 0.005 0 0 0 16.734
0.045 0.005 0 0 0 14.0135
0.05 0.005 0 0 0 11.9628
0.055 0.005 0 0 0 10.3737
0.06 0.005 0 0 0 9.11458
0.065 0.005 0 0 0 8.09847
0.07 0.005 0 0 0 7.266
0.075 0.005 0 0 0 6.57529
0.08 0.005 0 0 0 5.99596
0.085 0.005 0 0 0 5.50552
0.09 0.005 0 0 0 5.08697
0.095 0.005 0 0 0 4.72724
0.1 0.005 0 0 0 4.41613
0.105 0.005 0 0 0 4.14561
0.11 0.005 0 0 0 3.90924
0.115 0.005 0 0 0 3.70182
0.12 0.005 0 0 0 3.51914
0.125 0.005 0 0 0 3.35771
0.13 0.005 0 0 0 3.21465
0.135 0.005 0 0 0 3.08754
0.14 0.005 0 0 0 2.97437
0.145 0.005 0 0 0 2.87342
0.15 0.005 0 0 0 2.78324
0.155 0.005 0 0 0 2.70257
0.16 0.005 0 0 0 2.63035
0.165 0.005 0 0 0 2.56564
0.17 0.005 0 0 0 2.50763
0.175 0.005 0 0 0 2.45563
0.18 0.005 0 0 0 2.409
0.185 0.005 0 0 0 2.36721
0.19 0.005 0 0 0 2.32977
0.195 0.005 0 0 0 2.29624
0.2 0.005 0 0 0 2.26626
0.205 0.005 0 0 0 2.23948
0.21 0.005 0 0 0 2.21558
0.215 0.005 0 0 0 2.1943
0.22 0.005 0 0 0 2.17537
0.225 0.005 0 0 0 2.15858
0.23 0.005 0 0 0 2.14372
0.235 0.005 0 0 0 2.1306
0.24 0.005 0 0 0 2.11904
0.245 0.005 0 0 0 2.1089
0.25 0.005 0 0 0 2.10001
0.255 0.005 0 0 0 2.09225
0.26 0.005 0 0 0 2.08549
0.265 0.005 0 0 0 2.07962
0.27 0.005 0 0 0 2.07453
0.275 0.005 0 0 0 2.07012
0.28 0.005 0 0 0 2.0663
0.285 0.005 0 0 0 2.06298
0.29 0.005 0 0 0 2.06008
0.295 0.005 0 0 0 2.05752
0.3 0.005 0 0 0 2.05523
0.305 0.005 0 0 0 2.05315
0.31 0.005 0 0 0 2.05121
0.315 0.005 0 0 0 2.04935
0.32 0.005 0 0 0 2.04752
0.325 0.005 0 0 0 2.04567
0.33 0.005 0 0 0 2.04374
0.335 0.005 0 0 0 2.04169
0.34 0.005 0 0 0 2.03948
0.345 0.005 0 0 0 2.03707
0.35 0.005 0 0 0 2.03442
0.355 0.005 0 0 0 2.03149
0.36 0.005 0 0 0 2.02825
0.365 0.005 0 0 0 2.02467
0.37 0.005 0 0 0 2.02073
0.375 0.005 0 0 0 2.01639
0.38 0.005 0 0 0 2.01163
0.385 0.005 0 0 0 2.00643
0.39 0.005 0 0 0 2.00078
0.395 0.005 0 0 0 1.99465
0.4 0.005 0 0 0 1.98802
0.405 0.005 0 0 0 1.98089
0.41 0.005 0 0 0 1.97324
0.415 0.005 0 0 0 1.96506
0.42 0.005 0 0 0 1.95634
0.425 0.005 0 0 0 1.94707
0.43 0.005 0 0 0 1.93726
0.435 0.005 0 0 0 1.92689
0.44 0.005 0 0 0 1.91596
0.445 0.005 0 0 0 1.90448
0.45 0.005 0 0 0 1.89243
0.455 0.005 0 0 0 1.87984
0.46 0.005 0 0 0 1.86669
0.465 0.005 0 0 0 1.85299
0.47 0.005 0 0 0 1.83875
0.475 0.005 0 0 0 1.82398
0.48 0.005 0 0 0 1.80868
0.485 0.005 0 0 0 1.79287
0.49 0.005 0 0 0 1.77654
0.495 0.005 0 0 0 1.75973
0.5 0.005 0 0 0 1.74243
0.505 0.005 0 0 0 1.72465
0.51 0.005 0 0 0 1.70643
0.515 0.005 0 0 0 1.68775
0.52 0.005 0 0 0 1.66866
0.525 0.005 0 0 0 1.64914
0.53 0.005 0 0 0 1.62924
0.535 0.005 0 0 0 1.60895
0.54 0.005 0 0 0 1.5883
0.545 0.005 0 0 0 1.5673
0.55 0.005 0 0 0 1.54597
0.555 0.005 0 0 0 1.52433
0.56 0.005 0 0 0 1.5024
0.565 0.005 0 0 0 1.4802
0.57 0.005 0 0 0 1.45773
0.575 0.005 0 0 0 1.43503
0.58 0.005 0 0 0 1.4121
0.585 0.005 0 0 0 1.38898
0.59 0.005 0 0 0 1.36566
0.595 0.005 0 0 0 1.34218
0.6 0.005 0 0 0 1.31854
0.605 0.005 0 0 0 1.29477
0.61 0.005 0 0 0 1.27089
0.615 0.005 0 0 0 1.2469
0.62 0.005 0 0 0 1.22283
0.625 0.005 0 0 0 1.19869
0.63 0.005 0 0 0 1.1745
0.635 0.005 0 0 0 1.15028
0.64 0.005 0 0 0 1.12602
0.645 0.005 0 0 0 1.10177
0.65 0.005 0 0 0 1.07751
0.655 0.005 0 0 0 1.05328
0.66 0.005 0 0 0 1.02908
0.665 0.005 0 0 0 1.00493
0.67 0.005 0 0 0 0.980835
0.675 0.005 0 0 0 0.95681
0.68 0.005 0 0 0 0.932868
0.685 0.005 0 0 0 0.909018
0.69 0.005 0 0 0 0.885273
0.695 0.005 0 0 0 0.861642
0.7 0.005 0 0 0 0.838136
0.705 0.005 0 0 0 0.814763
0.71 0.005 0 0 0 0.791535
0.715 0.005 0 0 0 0.768459
0.72 0.005 0 0 0 0.745544
0.725 0.005 0 0 0 0.7228
0.73 0.005 0 0 0 0.700233
0.735 0.005 0 0 0 0.677853
0.74 0.005 0 0 0 0.655667
0.745 0.005 0 0 0 0.633683
0.75 0.005 0 0 0 0.611908
0.755 0.005 0 0 0 0.59035
0.76 0.005 0 0 0 0.569015
0.765 0.005 0 0 0 0.547912
0.77 0.005 0 0 0 0.527047
0.775 0.005 0 0 0 0.506427
0.78 0.005 0 0 0 0.486059
0.785 0.005 0 0 0 0.465952
0.79 0.005 0 0 0 0.446111
0.795 0.005 0 0 0 0.426545
0.8 0.005 0 0 0 0.40726
0.805 0.005 0 0 0 0.388265
0.81 0.005 0 0 0 0.369567
0.815 0.005 0 0 0 0.351175
0.82 0.005 0 0 0 0.333096
0.825 0.005 0 0 0 0.31534
0.83 0.005 0 0 0 0.297915
0.835 0.005 0 0 0 0.280831
0.84 0.005 0 0 0 0.264096
0.845 0.005 0 0 0 0.247722
0.85 0.005 0 0 0 0.231719
0.855 0.005 0 0 0 0.216097
0.86 0.005 0 0 0 0.200869
0.865 0.005 0 0 0 0.186046
0.87 0.005 0 0 0 0.17164
0.875 0.005 0 0 0 0.157666
0.88 0.005 0 0 0 0.144137
0.885 0.005 0 0 0 0.131068
0.89 0.005 0 0 0 0.118474
0.895 0.005 0 0 0 0.106372
0.9 0.005 0 0 0 0.0947792
0.905 0.005 0 0 0 0.083713
0.91 0.005 0 0 0 0.0731931
0.915 0.005 0 0 0 0.0632395
0.92 0.005 0 0 0 0.0538735
0.925 0.005 0 0 0 0.0451175
0.93 0.005 0 0 0 0.0369948
0.935 0.005 0 0 0 0.02953
0.94 0.005 0 0 0 0.0227484
0.945 0.005 0 0 0 0.016676
0.95 0.005 0 0 0 0.0113392
0.955 0.005 0 0 0 0.00676373
0.96 0.005 0 0 0 0.0029737
0.965 0.005 0 0 0 -1.02889e-05
0.97 0.005 0 0 0 -0.00217439
0.975 0.005 0 0 0 -0.00351681
0.98 0.005 0 0 0 -0.00405677
0.985 0.005 0 0 0 -0.00385023
0.99 0.005 0 0 0 -0.0030173
0.995 0.005 0 0 0 -0.00178879
1 0.005 0 0 0 -0.000574186
0 0.01 0 0 -0.000574186 0
0.005 0.01 0 0 0 -326.277
0.01 0.01 -0.179938 0.0774624 -0.00092154 -44.4861
0.015 0.01 -0.184426 -0.0352817 -0.000774624 9.44106
0.02 0.01 -0.155596 -0.0353844 -0.000568723 19.0588
0.025 0.01 -0.126627 -0.0246382 -0.00042078 18.9686
0.03 0.01 -0.103409 -0.0164953 -0.000322341 16.8535
0.035 0.01 -0.0856762 -0.0113165 -0.000255827 14.5988
0.04 0.01 -0.0721572 -0.00806578 -0.000209175 12.6346
0.045 0.01 -0.0617186 -0.00596406 -0.000175169 11.0088
0.05 0.01 -0.0535238 -0.00454974 -0.000149535 9.67757
0.055 0.01 -0.0469836 -0.00356025 -0.000129671 8.58467
0.06 0.01 -0.041685 -0.00284406 -0.000113932 7.68093
0.065 0.01 -0.0373348 -0.00231071 -0.000101231 6.92727
0.07 0.01 -0.0337215 -0.00190396 -9.08249e-05 6.29348
0.075 0.01 -0.0306896 -0.00158754 -8.2191e-05 5.75625
0.08 0.01 -0.0281227 -0.00133719 -7.49494e-05 5.29759
0.085 0.01 -0.0259325 -0.00113623 -6.88189e-05 4.90341
0.09 0.01 -0.0240505 -0.00097285 -6.3587e-05 4.56264
0.095 0.01 -0.0224234 -0.000838539 -5.90903e-05 4.26646
0.1 0.01 -0.0210091 -0.000727024 -5.52015e-05 4.0078
0.105 0.01 -0.0197736 -0.000633605 -5.182e-05 3.78093
0.11 0.01 -0.0186898 -0.000554714 -4.88653e-05 3.58117
0.115 0.01 -0.0177353 -0.000487603 -4.62727e-05 3.40466
0.12 0.01 -0.0168918 -0.00043013 -4.39892e-05 3.24823
0.125 0.01 -0.0161443 -0.00038061 -4.19713e-05 3.1092
0.13 0.01 -0.01548 -0.000337704 -4.0183e-05 2.98534
0.135 0.01 -0.0148883 -0.000300336 -3.85941e-05 2.87476
0.14 0.01 -0.0143603 -0.000267639 -3.71795e-05 2.77586
0.145 0.01 -0.0138883 -0.000238904 -3.59177e-05 2.68727
0.15 0.01 -0.0134657 -0.000213552 -3.47904e-05 2.6078
0.155 0.01 -0.013087 -0.000191103 -3.37821e-05 2.53645
0.16 0.01 -0.0127473 -0.000171159 -3.28793e-05 2.47232
0.165 0.01 -0.0124423 -0.000153387 -3.20704e-05 2.41465
0.17 0.01 -0.0121685 -0.000137508 -3.13454e-05 2.36276
0.175 0.01 -0.0119225 -0.000123286 -3.06953e-05 2.31607
0.18 0.01 -0.0117016 -0.000110521 -3.01125e-05 2.27405
0.185 0.01 -0.0115032 -9.9042e-05 -2.95901e-05 2.23624
0.19 0.01 -0.0113251 -8.87029e-05 -2.91221e-05 2.20222
0.195 0.01 -0.0111653 -7.93782e-05 -2.87031e-05 2.17164
0.2 0.01 -0.0110221 -7.09596e-05 -2.83283e-05 2.14416
0.205 0.01 -0.0108938 -6.33533e-05 -2.79935e-05 2.11949
0.21 0.01 -0.0107791 -5.64776e-05 -2.76948e-05 2.09736
0.215 0.01 -0.0106766 -5.02615e-05 -2.74287e-05 2.07753
0.22 0.01 -0.0105852 -4.46425e-05 -2.71922e-05 2.05979
0.225 0.01 -0.0105039 -3.95661e-05 -2.69824e-05 2.04392
0.23 0.01 -0.0104315 -3.4984e-05 -2.67966e-05 2.02976
0.235 0.01 -0.0103674 -3.08536e-05 -2.66326e-05 2.01714
0.24 0.01 -0.0103106 -2.71373e-05 -2.64881e-05 2.00589
0.245 0.01 -0.0102604 -2.38016e-05 -2.63613e-05 1.9959
0.25 0.01 -0.0102162 -2.08163e-05 -2.62502e-05 1.98701
0.255 0.01 -0.0101772 -1.8155e-05 -2.61532e-05 1.97912
0.26 0.01 -0.0101429 -1.57934e-05 -2.60688e-05 1.97212
0.265 0.01 -0.0101128 -1.371e-05 -2.59954e-05 1.9659
0.27 0.01 -0.0100864 -1.18852e-05 -2.59318e-05 1.96036
0.275 0.01 -0.0100631 -1.03014e-05 -2.58767e-05 1.95542
0.28 0.01 -0.0100426 -8.94249e-06 -2.58289e-05 1.951
0.285 0.01 -0.0100245 -7.79368e-06 -2.57874e-05 1.94701
0.29 0.01 -0.0100083 -6.84155e-06 -2.57512e-05 1.9434
0.295 0.01 -0.00999366 -6.0737e-06 -2.57192e-05 1.94007
0.3 0.01 -0.00998031 -5.47869e-06 -2.56906e-05 1.93698
0.305 0.01 -0.0099679 -5.04592e-06 -2.56646e-05 1.93407
0.31 0.01 -0.00995613 -4.76552e-06 -2.56403e-05 1.93128
0.315 0.01 -0.00994474 -4.62825e-06 -2.56171e-05 1.92855
0.32 0.01 -0.00993345 -4.62547e-06 -2.55943e-05 1.92583
0.325 0.01 -0.00992202 -4.74901e-06 -2.55711e-05 1.92309
0.33 0.01 -0.00991023 -4.99116e-06 -2.5547e-05 1.92028
0.335 0.01 -0.00989785 -5.34458e-06 -2.55214e-05 1.91735
0.34 0.01 -0.00988468 -5.80231e-06 -2.54938e-05 1.91428
0.345 0.01 -0.00987054 -6.35766e-06 -2.54636e-05 1.91101
0.35 0.01 -0.00985524 -7.00424e-06 -2.54305e-05 1.90753
0.355 0.01 -0.00983863 -7.73589e-06 -2.53939e-05 1.9038
0.36 0.01 -0.00982054 -8.54666e-06 -2.53534e-05 1.89979
0.365 0.01 -0.00980084 -9.43081e-06 -2.53087e-05 1.89547
0.37 0.01 -0.0097794 -1.03828e-05 -2.52593e-05 1.89083
0.375 0.01 -0.00975609 -1.13971e-05 -2.52051e-05 1.88583
0.38 0.01 -0.0097308 -1.24687e-05 -2.51457e-05 1.88046
0.385 0.01 -0.00970343 -1.35923e-05 -2.50807e-05 1.8747
0.39 0.01 -0.00967389 -1.47629e-05 -2.501e-05 1.86853
0.395 0.01 -0.0096421 -1.59758e-05 -2.49334e-05 1.86193
0.4 0.01 -0.00960798 -1.72261e-05 -2.48506e-05 1.8549
0.405 0.01 -0.00957148 -1.85093e-05 -2.47614e-05 1.84743
0.41 0.01 -0.00953252 -1.98209e-05 -2.46658e-05 1.83949
0.415 0.01 -0.00949107 -2.11565e-05 -2.45636e-05 1.83109
0.42 0.01 -0.00944709 -2.25118e-05 -2.44546e-05 1.82221
0.425 0.01 -0.00940055 -2.38826e-05 -2.43388e-05 1.81285
0.43 0.01 -0.00935141 -2.5265e-05 -2.42161e-05 1.80301
0.435 0.01 -0.00929967 -2.66551e-05 -2.40864e-05 1.79269
0.44 0.01 -0.00924532 -2.80489e-05 -2.39498e-05 1.78187
0.445 0.01 -0.00918835 -2.94429e-05 -2.38063e-05 1.77057
0.45 0.01 -0.00912877 -3.08335e-05 -2.36557e-05 1.75878
0.455 0.01 -0.00906659 -3.22174e-05 -2.34983e-05 1.74651
0.46 0.01 -0.00900182 -3.35912e-05 -2.33339e-05 1.73375
0.465 0.01 -0.0089345 -3.49518e-05 -2.31627e-05 1.72052
0.47 0.01 -0.00886464 -3.62962e-05 -2.29847e-05 1.70682
0.475 0.01 -0.00879229 -3.76215e-05 -2.28001e-05 1.69266
0.48 0.01 -0.00871747 -3.89251e-05 -2.26088e-05 1.67804
0.485 0.01 -0.00864025 -4.02044e-05 -2.24112e-05 1.66297
0.49 0.01 -0.00856066 -4.1457e-05 -2.22071e-05 1.64746
0.495 0.01 -0.00847876 -4.26806e-05 -2.19969e-05 1.63152
0.5 0.01 -0.0083946 -4.38731e-05 -2.17807e-05 1.61516
0.505 0.01 -0.00830825 -4.50326e-05 -2.15585e-05 1.5984
0.51 0.01 -0.00821977 -4.61572e-05 -2.13306e-05 1.58125
0.515 0.01 -0.00812923 -4.72454e-05 -2.10973e-05 1.56371
0.52 0.01 -0.0080367 -4.82956e-05 -2.08585e-05 1.5458
0.525 0.01 -0.00794225 -4.93065e-05 -2.06146e-05 1.52754
0.53 0.01 -0.00784596 -5.02769e-05 -2.03658e-05 1.50894
0.535 0.01 -0.0077479 -5.12058e-05 -2.01122e-05 1.49002
0.54 0.01 -0.00764815 -5.20923e-05 -1.9854e-05 1.47078
0.545 0.01 -0.0075468 -5.29356e-05 -1.95915e-05 1.45124
0.55 0.01 -0.00744392 -5.37351e-05 -1.9325e-05 1.43143
0.555 0.01 -0.0073396 -5.44903e-05 -1.90545e-05 1.41135
0.56 0.01 -0.00723392 -5.5201e-05 -1.87803e-05 1.39101
0.565 0.01 -0.00712696 -5.58668e-05 -1.85028e-05 1.37045
0.57 0.01 -0.00701881 -5.64877e-05 -1.82219e-05 1.34966
0.575 0.01 -0.00690956 -5.70638e-05 -1.79381e-05 1.32867
0.58 0.01 -0.00679928 -5.75951e-05 -1.76516e-05 1.30749
0.585 0.01 -0.00668806 -5.8082e-05 -1.73625e-05 1.28614
0.59 0.01 -0.00657598 -5.85247e-05 -1.7071e-05 1.26464
0.595 0.01 -0.00646313 -5.89236e-05 -1.67775e-05 1.24299
0.6 0.01 -0.00634958 -5.92794e-05 -1.6482e-05 1.22121
0.605 0.01 -0.00623542 -5.95926e-05 -1.61849e-05 1.19933
0.61 0.01 -0.00612073 -5.98638e-05 -1.58863e-05 1.17734
0.615 0.01 -0.00600557 -6.00939e-05 -1.55865e-05 1.15527
0.62 0.01 -0.00589004 -6.02836e-05 -1.52856e-05 1.13314
0.625 0.01 -0.0057742 -6.04338e-05 -1.49839e-05 1.11095
0.63 0.01 -0.00565812 -6.05454e-05 -1.46815e-05 1.08872
0.635 0.01 -0.00554189 -6.06194e-05 -1.43786e-05 1.06646
0.64 0.01 -0.00542556 -6.06566e-05 -1.40755e-05 1.04418
0.645 0.01 -0.0053092 -6.06581e-05 -1.37723e-05 1.02191
0.65 0.01 -0.00519288 -6.0625e-05 -1.34691e-05 0.999641
0.655 0.01 -0.00507667 -6.05582e-05 -1.31662e-05 0.977395
0.66 0.01 -0.00496063 -6.04588e-05 -1.28637e-05 0.955183
0.665 0.01 -0.00484481 -6.03278e-05 -1.25618e-05 0.933015
0.67 0.01 -0.00472927 -6.01663e-05 -1.22606e-05 0.910902
0.675 0.01 -0.00461408 -5.99753e-05 -1.19603e-05 0.888854
0.68 0.01 -0.00449928 -5.97558e-05 -1.1661e-05 0.866882
0.685 0.01 -0.00438492 -5.95088e-05 -1.13629e-05 0.844996
0.69 0.01 -0.00427107 -5.92352e-05 -1.10661e-05 0.823205
0.695 0.01 -0.00415776 -5.8936e-05 -1.07707e-05 0.801518
0.7 0.01 -0.00404504 -5.8612e-05 -1.04768e-05 0.779944
0.705 0.01 -0.00393297 -5.82642e-05 -1.01847e-05 0.758491
0.71 0.01 -0.00382158 -5.78933e-05 -9.8943e-06 0.737168
0.715 0.01 -0.00371092 -5.75e-05 -9.60585e-06 0.715983
0.72 0.01 -0.00360102 -5.70852e-05 -9.31941e-06 0.694944
0.725 0.01 -0.00349193 -5.66494e-05 -9.0351e-06 0.674058
0.73 0.01 -0.00338369 -5.61932e-05 -8.75302e-06 0.653332
0.735 0.01 -0.00327634 -5.57173e-05 -8.47326e-06 0.632775
0.74 0.01 -0.00316991 -5.5222e-05 -8.19593e-06 0.612392
0.745 0.01 -0.00306443 -5.47078e-05 -7.92112e-06 0.592191
0.75 0.01 -0.00295995 -5.4175e-05 -7.64893e-06 0.572178
0.755 0.01 -0.0028565 -5.36239e-05 -7.37945e-06 0.55236
0.76 0.01 -0.00275412 -5.30548e-05 -7.11276e-06 0.532744
0.765 0.01 -0.00265283 -5.24677e-05 -6.84896e-06 0.513337
0.77 0.01 -0.00255268 -5.18628e-05 -6.58814e-06 0.494144
0.775 0.01 -0.00245369 -5.12401e-05 -6.33039e-06 0.475172
0.78 0.01 -0.0023559 -5.05994e-05 -6.07579e-06 0.456429
0.785 0.01 -0.00225935 -4.99407e-05 -5.82444e-06 0.43792
0.79 0.01 -0.00216407 -4.92636e-05 -5.57643e-06 0.419652
0.795 0.01 -0.00207009 -4.85681e-05 -5.33185e-06 0.401633
0.8 0.01 -0.00197746 -4.78535e-05 -5.09079e-06 0.383868
0.805 0.01 -0.00188621 -4.71196e-05 -4.85334e-06 0.366366
0.81 0.01 -0.00179637 -4.63659e-05 -4.61962e-06 0.349134
0.815 0.01 -0.00170799 -4.55916e-05 -4.38971e-06 0.332178
0.82 0.01 -0.00162111 -4.47962e-05 -4.16373e-06 0.315507
0.825 0.01 -0.00153576 -4.39789e-05 -3.94177e-06 0.299129
0.83 0.01 -0.00145199 -4.31389e-05 -3.72396e-06 0.283053
0.835 0.01 -0.00136985 -4.22753e-05 -3.5104e-06 0.267286
0.84 0.01 -0.00128939 -4.1387e-05 -3.30122e-06 0.251838
0.845 0.01 -0.00121064 -4.04731e-05 -3.09654e-06 0.236718
0.85 0.01 -0.00113366 -3.95324e-05 -2.8965e-06 0.221936
0.855 0.01 -0.00105851 -3.85635e-05 -2.70122e-06 0.207503
0.86 0.01 -0.000985236 -3.75653e-05 -2.51086e-06 0.193428
0.865 0.01 -0.000913901 -3.65362e-05 -2.32557e-06 0.179724
0.87 0.01 -0.000844565 -3.54746e-05 -2.1455e-06 0.166402
0.875 0.01 -0.000777291 -3.4379e-05 -1.97083e-06 0.153473
0.88 0.01 -0.000712147 -3.32476e-05 -1.80171e-06 0.140952
0.885 0.01 -0.000649202 -3.20784e-05 -1.63835e-06 0.128851
0.89 0.01 -0.000588531 -3.08695e-05 -1.48093e-06 0.117184
0.895 0.01 -0.000530211 -2.96187e-05 -1.32965e-06 0.105967
0.9 0.01 -0.000474324 -2.83237e-05 -1.18474e-06 0.0952142
0.905 0.01 -0.000420954 -2.69821e-05 -1.04641e-06 0.0849422
0.91 0.01 -0.000370193 -2.55914e-05 -9.14908e-07 0.0751677
0.915 0.01 -0.000322133 -2.4149e-05 -7.90488e-07 0.0659081
0.92 0.01 -0.000276874 -2.2652e-05 -6.73413e-07 0.0571815
0.925 0.01 -0.000234517 -2.10978e-05 -5.63962e-07 0.0490064
0.93 0.01 -0.000195169 -1.94838e-05 -4.62429e-07 0.041402
0.935 0.01 -0.000158938 -1.78074e-05 -3.69119e-07 0.0343873
0.94 0.01 -0.000125937 -1.60669e-05 -2.84349e-07 0.0279815
0.945 0.01 -9.62775e-05 -1.42609e-05 -2.08445e-07 0.022203
0.95 0.01 -7.00684e-05 -1.23899e-05 -1.41736e-07 0.0170691
0.955 0.01 -4.74132e-05 -1.04564e-05 -8.45424e-08 0.0125945
0.96 0.01 -2.84018e-05 -8.4671e-06 -3.71676e-08 0.00879023
0.965 0.01 -1.31016e-05 -6.43475e-06 1.31689e-10 0.005661
0.97 0.01 -1.54151e-06 -4.38284e-06 2.71824e-08 0.00320196
0.975 0.01 6.31116e-06 -2.35272e-06 4.3962e-08 0.00139364
0.98 0.01 1.05884e-05 -4.1659e-07 5.07109e-08 0.000194702
0.985 0.01 1.15791e-05 1.29947e-06 4.81287e-08 -0.000468195
0.99 0.01 9.8183e-06 2.57689e-06 3.77166e-08 -0.000712248
0.995 0.01 6.2177e-06 3.05393e-06 2.23599e-08 -0.000705278
1 0.01 2.23257e-06 2.23599e-06 7.17729e-09 -0.000639071
0 0.015 0 0 -0.00178606 0
0.005 0.015 0 0 0 -256.049
0.01 0.015 -0.152604 0.184426 -0.00179938 -79.366
0.015 0.015 -0.205575 -0.0243427 -0.00184426 -16.668
0.02 0.015 -0.203614 -0.057799 -0.00155596 2.41181
0.025 0.015 -0.18364 -0.0521862 -0.00126627 8.11694
0.03 0.015 -0.160616 -0.0409508 -0.00103409 9.50011
0.035 0.015 -0.139508 -0.0312522 -0.000856762 9.41389
0.04 0.015 -0.121503 -0.0239576 -0.000721571 8.84183
0.045 0.015 -0.106519 -0.0186334 -0.000617186 8.14389
0.05 0.015 -0.0941203 -0.014735 -0.000535237 7.45379
0.055 0.015 -0.0838374 -0.0118388 -0.000469836 6.81845
0.06 0.015 -0.0752614 -0.00964878 -0.000416849 6.25058
0.065 0.015 -0.0680601 -0.00796343 -0.000373347 5.74946
0.07 0.015 -0.0619702 -0.00664514 -0.000337215 5.30947
0.075 0.015 -0.0567849 -0.00559871 -0.000306896 4.92363
0.08 0.015 -0.0523414 -0.0047571 -0.000281227 4.58499
0.085 0.015 -0.0485109 -0.00407222 -0.000259324 4.28726
0.09 0.015 -0.0451907 -0.00350898 -0.000240504 4.02489
0.095 0.015 -0.0422987 -0.00304136 -0.000224234 3.79309
0.1 0.015 -0.0397683 -0.00264976 -0.00021009 3.58777
0.105 0.015 -0.0375452 -0.00231926 -0.000197736 3.40546
0.11 0.015 -0.035585 -0.0020383 -0.000186897 3.24319
0.115 0.015 -0.0338509 -0.0017979 -0.000177352 3.09842
0.12 0.015 -0.0323124 -0.00159095 -0.000168918 2.96901
0.125 0.015 -0.0309438 -0.00141181 -0.000161443 2.85311
0.13 0.015 -0.0297235 -0.00125593 -0.0001548 2.74913
0.135 0.015 -0.0286333 -0.00111967 -0.000148883 2.6557
0.14 0.015 -0.0276577 -0.00100003 -0.000143603 2.57164
0.145 0.015 -0.0267832 -0.000894561 -0.000138882 2.49592
0.15 0.015 -0.0259985 -0.000801246 -0.000134657 2.42765
0.155 0.015 -0.0252936 -0.000718406 -0.00013087 2.36605
0.16 0.015 -0.0246599 -0.000644638 -0.000127472 2.31043
0.165 0.015 -0.0240899 -0.000578767 -0.000124423 2.26019
0.17 0.015 -0.0235769 -0.000519798 -0.000121685 2.21479
0.175 0.015 -0.0231153 -0.000466892 -0.000119225 2.17375
0.18 0.015 -0.0226998 -0.00041933 -0.000117016 2.13666
0.185 0.015 -0.0223259 -0.000376499 -0.000115032 2.10314
0.19 0.015 -0.0219895 -0.000337873 -0.000113251 2.07285
0.195 0.015 -0.0216871 -0.000302998 -0.000111653 2.04549
0.2 0.015 -0.0214155 -0.00027148 -0.000110221 2.02078
0.205 0.015 -0.0211716 -0.000242978 -0.000108938 1.99849
0.21 0.015 -0.0209529 -0.000217195 -0.000107791 1.97837
0.215 0.015 -0.0207571 -0.00019387 -0.000106766 1.96024
0.22 0.015 -0.0205818 -0.000172776 -0.000105853 1.9439
0.225 0.015 -0.0204252 -0.00015371 -0.000105039 1.92919
0.23 0.015 -0.0202855 -0.000136495 -0.000104316 1.91595
0.235 0.015 -0.0201611 -0.000120975 -0.000103674 1.90403
0.24 0.015 -0.0200503 -0.000107009 -0.000103106 1.89331
0.245 0.015 -0.0199519 -9.44744e-05 -0.000102604 1.88367
0.25 0.015 -0.0198645 -8.32585e-05 -0.000102162 1.87499
0.255 0.015 -0.0197871 -7.32621e-05 -0.000101772 1.86717
0.26 0.015 -0.0197183 -6.43956e-05 -0.00010143 1.86011
0.265 0.015 -0.0196574 -5.65781e-05 -0.000101129 1.85372
0.27 0.015 -0.0196032 -4.97365e-05 -0.000100865 1.84793
0.275 0.015 -0.019555 -4.38044e-05 -0.000100632 1.84264
0.28 0.015 -0.0195118 -3.8721e-05 -0.000100427 1.8378
0.285 0.015 -0.019473 -3.44311e-05 -0.000100245 1.83333
0.29 0.015 -0.0194378 -3.08838e-05 -0.000100083 1.82916
0.295 0.015 -0.0194055 -2.80323e-05 -9.99373e-05 1.82525
0.3 0.015 -0.0193756 -2.58331e-05 -9.98038e-05 1.82153
0.305 0.015 -0.0193473 -2.42462e-05 -9.96797e-05 1.81795
0.31 0.015 -0.0193202 -2.3234e-05 -9.95621e-05 1.81446
0.315 0.015 -0.0192937 -2.27615e-05 -9.94482e-05 1.81101
0.32 0.015 -0.0192673 -2.27956e-05 -9.93353e-05 1.80758
0.325 0.015 -0.0192407 -2.33053e-05 -9.92211e-05 1.8041
0.33 0.015 -0.0192132 -2.42612e-05 -9.91032e-05 1.80055
0.335 0.015 -0.0191847 -2.56354e-05 -9.89794e-05 1.79689
0.34 0.015 -0.0191545 -2.74013e-05 -9.88478e-05 1.79308
0.345 0.015 -0.0191225 -2.95333e-05 -9.87064e-05 1.78911
0.35 0.015 -0.0190883 -3.20072e-05 -9.85534e-05 1.78493
0.355 0.015 -0.0190515 -3.47994e-05 -9.83873e-05 1.78052
0.36 0.015 -0.0190119 -3.78872e-05 -9.82065e-05 1.77586
0.365 0.015 -0.0189693 -4.12488e-05 -9.80095e-05 1.77093
0.37 0.015 -0.0189233 -4.48631e-05 -9.77951e-05 1.76569
0.375 0.015 -0.0188738 -4.87094e-05 -9.7562e-05 1.76015
0.38 0.015 -0.0188205 -5.27679e-05 -9.73091e-05 1.75427
0.385 0.015 -0.0187633 -5.70191e-05 -9.70354e-05 1.74804
0.39 0.015 -0.018702 -6.14442e-05 -9.67401e-05 1.74145
0.395 0.015 -0.0186364 -6.60248e-05 -9.64222e-05 1.73449
0.4 0.015 -0.0185664 -7.07431e-05 -9.6081e-05 1.72714
0.405 0.015 -0.0184919 -7.55815e-05 -9.5716e-05 1.71939
0.41 0.015 -0.0184128 -8.05232e-05 -9.53264e-05 1.71125
0.415 0.015 -0.018329 -8.55516e-05 -9.4912e-05 1.70269
0.42 0.015 -0.0182404 -9.06508e-05 -9.44722e-05 1.69371
0.425 0.015 -0.0181471 -9.58051e-05 -9.40067e-05 1.68432
0.43 0.015 -0.0180488 -0.000100999 -9.35154e-05 1.67451
0.435 0.015 -0.0179457 -0.000106219 -9.2998e-05 1.66427
0.44 0.015 -0.0178376 -0.00011145 -9.24545e-05 1.65361
0.445 0.015 -0.0177247 -0.000116679 -9.18848e-05 1.64252
0.45 0.015 -0.0176068 -0.000121891 -9.1289e-05 1.63101
0.455 0.015 -0.0174841 -0.000127076 -9.06672e-05 1.61908
0.46 0.015 -0.0173566 -0.00013222 -9.00195e-05 1.60674
0.465 0.015 -0.0172243 -0.000137312 -8.93463e-05 1.59398
0.47 0.015 -0.0170872 -0.00014234 -8.86477e-05 1.58082
0.475 0.015 -0.0169455 -0.000147295 -8.79242e-05 1.56726
0.48 0.015 -0.0167992 -0.000152166 -8.7176e-05 1.5533
0.485 0.015 -0.0166484 -0.000156944 -8.64038e-05 1.53896
0.49 0.015 -0.0164932 -0.00016162 -8.56079e-05 1.52425
0.495 0.015 -0.0163336 -0.000166185 -8.47889e-05 1.50917
0.5 0.015 -0.0161699 -0.000170632 -8.39473e-05 1.49373
0.505 0.015 -0.0160021 -0.000174954 -8.30838e-05 1.47794
0.51 0.015 -0.0158303 -0.000179144 -8.2199e-05 1.46181
0.515 0.015 -0.0156547 -0.000183197 -8.12936e-05 1.44537
0.52 0.015 -0.0154754 -0.000187106 -8.03683e-05 1.4286
0.525 0.015 -0.0152926 -0.000190866 -7.94237e-05 1.41154
0.53 0.015 -0.0151063 -0.000194475 -7.84608e-05 1.39418
0.535 0.015 -0.0149167 -0.000197927 -7.74802e-05 1.37655
0.54 0.015 -0.0147241 -0.00020122 -7.64827e-05 1.35866
0.545 0.015 -0.0145284 -0.00020435 -7.54692e-05 1.34052
0.55 0.015 -0.0143299 -0.000207317 -7.44404e-05 1.32213
0.555 0.015 -0.0141288 -0.000210117 -7.33971e-05 1.30353
0.56 0.015 -0.0139251 -0.00021275 -7.23403e-05 1.28471
0.565 0.015 -0.0137191 -0.000215216 -7.12707e-05 1.2657
0.57 0.015 -0.0135109 -0.000217513 -7.01892e-05 1.2465
0.575 0.015 -0.0133006 -0.000219643 -6.90966e-05 1.22713
0.58 0.015 -0.0130885 -0.000221605 -6.79938e-05 1.20761
0.585 0.015 -0.0128746 -0.000223401 -6.68816e-05 1.18794
0.59 0.015 -0.0126592 -0.000225032 -6.57608e-05 1.16815
0.595 0.015 -0.0124423 -0.000226499 -6.46323e-05 1.14823
0.6 0.015 -0.0122242 -0.000227805 -6.34968e-05 1.12821
0.605 0.015 -0.0120049 -0.000228952 -6.23552e-05 1.10811
0.61 0.015 -0.0117847 -0.000229942 -6.12082e-05 1.08792
0.615 0.015 -0.0115636 -0.000230779 -6.00566e-05 1.06766
0.62 0.015 -0.0113419 -0.000231465 -5.89013e-05 1.04736
0.625 0.015 -0.0111196 -0.000232003 -5.77428e-05 1.02701
0.63 0.015 -0.0108969 -0.000232397 -5.65821e-05 1.00663
0.635 0.015 -0.0106739 -0.00023265 -5.54197e-05 0.986226
0.64 0.015 -0.0104508 -0.000232767 -5.42563e-05 0.965818
0.645 0.015 -0.0102276 -0.00023275 -5.30927e-05 0.945412
0.65 0.015 -0.0100046 -0.000232603 -5.19296e-05 0.925021
0.655 0.015 -0.00978174 -0.00023233 -5.07674e-05 0.904652
0.66 0.015 -0.00955925 -0.000231936 -4.96069e-05 0.884317
0.665 0.015 -0.0093372 -0.000231424 -4.84487e-05 0.864025
0.67 0.015 -0.00911571 -0.000230797 -4.72934e-05 0.843785
0.675 0.015 -0.00889487 -0.000230059 -4.61414e-05 0.823607
0.68 0.015 -0.0086748 -0.000229215 -4.49934e-05 0.803499
0.685 0.015 -0.00845559 -0.000228268 -4.38498e-05 0.78347
0.69 0.015 -0.00823733 -0.000227221 -4.27112e-05 0.763527
0.695 0.015 -0.00802012 -0.000226078 -4.15781e-05 0.74368
0.7 0.015 -0.00780405 -0.000224842 -4.04509e-05 0.723935
0.705 0.015 -0.00758919 -0.000223516 -3.93302e-05 0.7043
0.71 0.015 -0.00737564 -0.000222103 -3.82163e-05 0.684783
0.715 0.015 -0.00716348 -0.000220606 -3.71096e-05 0.66539
0.72 0.015 -0.00695278 -0.000219027 -3.60106e-05 0.646129
0.725 0.015 -0.00674361 -0.00021737 -3.49197e-05 0.627005
0.73 0.015 -0.00653606 -0.000215635 -3.38373e-05 0.608026
0.735 0.015 -0.00633018 -0.000213825 -3.27637e-05 0.589198
0.74 0.015 -0.00612607 -0.000211942 -3.16994e-05 0.570527
0.745 0.015 -0.00592377 -0.000209987 -3.06446e-05 0.552019
0.75 0.015 -0.00572337 -0.000207961 -2.95998e-05 0.533681
0.755 0.015 -0.00552492 -0.000205866 -2.85653e-05 0.515519
0.76 0.015 -0.00532849 -0.000203702 -2.75414e-05 0.497537
0.765 0.015 -0.00513416 -0.000201469 -2.65286e-05 0.479743
0.77 0.015 -0.00494197 -0.000199168 -2.5527e-05 0.462143
0.775 0.015 -0.004752 -0.000196798 -2.45371e-05 0.444742
0.78 0.015 -0.00456432 -0.00019436 -2.35592e-05 0.427546
0.785 0.015 -0.00437899 -0.000191852 -2.25937e-05 0.410561
0.79 0.015 -0.00419607 -0.000189274 -2.16409e-05 0.393794
0.795 0.015 -0.00401565 -0.000186624 -2.07011e-05 0.377251
0.8 0.015 -0.00383777 -0.000183902 -1.97748e-05 0.360939