Title=" Lid Driven Flow"
VARIABLES="X","Y","U","V","psi","xi"
ZONE T= "BOX", I= 201, J=201, F=POINT
0 0 0 0 0.000459398 0
0.005 0 0 0 0 0
0.01 0 0 0 0 0
0.015 0 0 0 0 161.888
0.02 0 0 0 0 176.135
0.025 0 0 0 0 155.654
0.03 0 0 0 0 133.319
0.035 0 0 0 0 115.859
0.04 0 0 0 0 103.059
0.045 0 0 0 0 93.5671
0.05 0 0 0 0 86.2685
0.055 0 0 0 0 80.4276
0.06 0 0 0 0 75.5851
0.065 0 0 0 0 71.4526
0.07 0 0 0 0 67.844
0.075 0 0 0 0 64.6346
0.08 0 0 0 0 61.7386
0.085 0 0 0 0 59.0949
0.09 0 0 0 0 56.6591
0.095 0 0 0 0 54.3983
0.1 0 0 0 0 52.2878
0.105 0 0 0 0 50.3084
0.11 0 0 0 0 48.4452
0.115 0 0 0 0 46.6862
0.12 0 0 0 0 45.0217
0.125 0 0 0 0 43.4438
0.13 0 0 0 0 41.9455
0.135 0 0 0 0 40.5211
0.14 0 0 0 0 39.1654
0.145 0 0 0 0 37.8738
0.15 0 0 0 0 36.6422
0.155 0 0 0 0 35.4667
0.16 0 0 0 0 34.3439
0.165 0 0 0 0 33.2704
0.17 0 0 0 0 32.2433
0.175 0 0 0 0 31.2595
0.18 0 0 0 0 30.3164
0.185 0 0 0 0 29.4114
0.19 0 0 0 0 28.5419
0.195 0 0 0 0 27.7057
0.2 0 0 0 0 26.9004
0.205 0 0 0 0 26.1241
0.21 0 0 0 0 25.3746
0.215 0 0 0 0 24.6502
0.22 0 0 0 0 23.9489
0.225 0 0 0 0 23.2691
0.23 0 0 0 0 22.6092
0.235 0 0 0 0 21.9677
0.24 0 0 0 0 21.3432
0.245 0 0 0 0 20.7344
0.25 0 0 0 0 20.1401
0.255 0 0 0 0 19.5592
0.26 0 0 0 0 18.9905
0.265 0 0 0 0 18.4332
0.27 0 0 0 0 17.8865
0.275 0 0 0 0 17.3495
0.28 0 0 0 0 16.8215
0.285 0 0 0 0 16.3019
0.29 0 0 0 0 15.7901
0.295 0 0 0 0 15.2858
0.3 0 0 0 0 14.7885
0.305 0 0 0 0 14.2978
0.31 0 0 0 0 13.8136
0.315 0 0 0 0 13.3356
0.32 0 0 0 0 12.8637
0.325 0 0 0 0 12.3977
0.33 0 0 0 0 11.9378
0.335 0 0 0 0 11.4839
0.34 0 0 0 0 11.036
0.345 0 0 0 0 10.5943
0.35 0 0 0 0 10.159
0.355 0 0 0 0 9.73022
0.36 0 0 0 0 9.30818
0.365 0 0 0 0 8.89313
0.37 0 0 0 0 8.48533
0.375 0 0 0 0 8.08507
0.38 0 0 0 0 7.69263
0.385 0 0 0 0 7.30831
0.39 0 0 0 0 6.93241
0.395 0 0 0 0 6.56522
0.4 0 0 0 0 6.20705
0.405 0 0 0 0 5.85817
0.41 0 0 0 0 5.51885
0.415 0 0 0 0 5.18933
0.42 0 0 0 0 4.86985
0.425 0 0 0 0 4.56062
0.43 0 0 0 0 4.2618
0.435 0 0 0 0 3.97355
0.44 0 0 0 0 3.69599
0.445 0 0 0 0 3.42921
0.45 0 0 0 0 3.17326
0.455 0 0 0 0 2.92816
0.46 0 0 0 0 2.69391
0.465 0 0 0 0 2.47045
0.47 0 0 0 0 2.2577
0.475 0 0 0 0 2.05556
0.48 0 0 0 0 1.86389
0.485 0 0 0 0 1.68252
0.49 0 0 0 0 1.51125
0.495 0 0 0 0 1.34987
0.5 0 0 0 0 1.19812
0.505 0 0 0 0 1.05575
0.51 0 0 0 0 0.922468
0.515 0 0 0 0 0.797981
0.52 0 0 0 0 0.681978
0.525 0 0 0 0 0.574136
0.53 0 0 0 0 0.474126
0.535 0 0 0 0 0.381612
0.54 0 0 0 0 0.296253
0.545 0 0 0 0 0.217708
0.55 0 0 0 0 0.145635
0.555 0 0 0 0 0.0796945
0.56 0 0 0 0 0.0195509
0.565 0 0 0 0 -0.0351273
0.57 0 0 0 0 -0.084665
0.575 0 0 0 0 -0.129379
0.58 0 0 0 0 -0.169579
0.585 0 0 0 0 -0.205564
0.59 0 0 0 0 -0.237623
0.595 0 0 0 0 -0.266034
0.6 0 0 0 0 -0.291064
0.605 0 0 0 0 -0.312969
0.61 0 0 0 0 -0.331989
0.615 0 0 0 0 -0.348355
0.62 0 0 0 0 -0.362285
0.625 0 0 0 0 -0.373981
0.63 0 0 0 0 -0.383635
0.635 0 0 0 0 -0.391424
0.64 0 0 0 0 -0.397515
0.645 0 0 0 0 -0.402061
0.65 0 0 0 0 -0.405202
0.655 0 0 0 0 -0.407068
0.66 0 0 0 0 -0.407778
0.665 0 0 0 0 -0.40744
0.67 0 0 0 0 -0.406154
0.675 0 0 0 0 -0.404008
0.68 0 0 0 0 -0.401084
0.685 0 0 0 0 -0.397458
0.69 0 0 0 0 -0.393196
0.695 0 0 0 0 -0.38836
0.7 0 0 0 0 -0.383006
0.705 0 0 0 0 -0.377187
0.71 0 0 0 0 -0.37095
0.715 0 0 0 0 -0.36434
0.72 0 0 0 0 -0.357398
0.725 0 0 0 0 -0.350163
0.73 0 0 0 0 -0.342671
0.735 0 0 0 0 -0.334957
0.74 0 0 0 0 -0.327055
0.745 0 0 0 0 -0.318995
0.75 0 0 0 0 -0.310808
0.755 0 0 0 0 -0.302522
0.76 0 0 0 0 -0.294164
0.765 0 0 0 0 -0.28576
0.77 0 0 0 0 -0.277335
0.775 0 0 0 0 -0.268912
0.78 0 0 0 0 -0.260511
0.785 0 0 0 0 -0.252154
0.79 0 0 0 0 -0.243857
0.795 0 0 0 0 -0.235637
0.8 0 0 0 0 -0.22751
0.805 0 0 0 0 -0.219487
0.81 0 0 0 0 -0.211579
0.815 0 0 0 0 -0.203796
0.82 0 0 0 0 -0.196144
0.825 0 0 0 0 -0.188629
0.83 0 0 0 0 -0.181253
0.835 0 0 0 0 -0.174019
0.84 0 0 0 0 -0.166925
0.845 0 0 0 0 -0.15997
0.85 0 0 0 0 -0.15315
0.855 0 0 0 0 -0.146459
0.86 0 0 0 0 -0.139893
0.865 0 0 0 0 -0.133443
0.87 0 0 0 0 -0.127101
0.875 0 0 0 0 -0.120859
0.88 0 0 0 0 -0.114705
0.885 0 0 0 0 -0.108632
0.89 0 0 0 0 -0.102629
0.895 0 0 0 0 -0.0966872
0.9 0 0 0 0 -0.0907977
0.905 0 0 0 0 -0.0849533
0.91 0 0 0 0 -0.0791479
0.915 0 0 0 0 -0.0733776
0.92 0 0 0 0 -0.0676406
0.925 0 0 0 0 -0.0619385
0.93 0 0 0 0 -0.056276
0.935 0 0 0 0 -0.0506624
0.94 0 0 0 0 -0.0451117
0.945 0 0 0 0 -0.039644
0.95 0 0 0 0 -0.0342858
0.955 0 0 0 0 -0.0290718
0.96 0 0 0 0 -0.0240452
0.965 0 0 0 0 -0.0192598
0.97 0 0 0 0 -0.0147805
0.975 0 0 0 0 -0.0106852
0.98 0 0 0 0 -0.00706495
0.985 0 0 0 0 -0.00402382
0.99 0 0 0 0 -0.00167418
0.995 0 0 0 0 -0.000123327
1 0 0 0 0 0.000563791
0 0.005 0 0 0 0
0.005 0.005 0 0 0 0
0.01 0.005 0 0 0 73.7239
0.015 0.005 0 0 0 61.9746
0.02 0.005 0 0 0 45.5064
0.025 0.005 0 0 0 33.6717
0.03 0.005 0 0 0 25.7933
0.035 0.005 0 0 0 20.4657
0.04 0.005 0 0 0 16.7254
0.045 0.005 0 0 0 13.9959
0.05 0.005 0 0 0 11.9364
0.055 0.005 0 0 0 10.3392
0.06 0.005 0 0 0 9.07279
0.065 0.005 0 0 0 8.05056
0.07 0.005 0 0 0 7.2131
0.075 0.005 0 0 0 6.51847
0.08 0.005 0 0 0 5.93624
0.085 0.005 0 0 0 5.44382
0.09 0.005 0 0 0 5.02409
0.095 0.005 0 0 0 4.66391
0.1 0.005 0 0 0 4.35298
0.105 0.005 0 0 0 4.08318
0.11 0.005 0 0 0 3.84801
0.115 0.005 0 0 0 3.6422
0.12 0.005 0 0 0 3.46148
0.125 0.005 0 0 0 3.30231
0.13 0.005 0 0 0 3.16178
0.135 0.005 0 0 0 3.03743
0.14 0.005 0 0 0 2.92721
0.145 0.005 0 0 0 2.82938
0.15 0.005 0 0 0 2.74248
0.155 0.005 0 0 0 2.66521
0.16 0.005 0 0 0 2.59651
0.165 0.005 0 0 0 2.53542
0.17 0.005 0 0 0 2.48113
0.175 0.005 0 0 0 2.43292
0.18 0.005 0 0 0 2.39015
0.185 0.005 0 0 0 2.35228
0.19 0.005 0 0 0 2.31882
0.195 0.005 0 0 0 2.28933
0.2 0.005 0 0 0 2.26342
0.205 0.005 0 0 0 2.24075
0.21 0.005 0 0 0 2.22101
0.215 0.005 0 0 0 2.2039
0.22 0.005 0 0 0 2.18919
0.225 0.005 0 0 0 2.17663
0.23 0.005 0 0 0 2.16602
0.235 0.005 0 0 0 2.15716
0.24 0.005 0 0 0 2.14988
0.245 0.005 0 0 0 2.14401
0.25 0.005 0 0 0 2.1394
0.255 0.005 0 0 0 2.13593
0.26 0.005 0 0 0 2.13345
0.265 0.005 0 0 0 2.13184
0.27 0.005 0 0 0 2.131
0.275 0.005 0 0 0 2.13083
0.28 0.005 0 0 0 2.13122
0.285 0.005 0 0 0 2.13208
0.29 0.005 0 0 0 2.13333
0.295 0.005 0 0 0 2.13488
0.3 0.005 0 0 0 2.13666
0.305 0.005 0 0 0 2.1386
0.31 0.005 0 0 0 2.14063
0.315 0.005 0 0 0 2.14269
0.32 0.005 0 0 0 2.14471
0.325 0.005 0 0 0 2.14663
0.33 0.005 0 0 0 2.14841
0.335 0.005 0 0 0 2.14999
0.34 0.005 0 0 0 2.15133
0.345 0.005 0 0 0 2.15237
0.35 0.005 0 0 0 2.15308
0.355 0.005 0 0 0 2.15341
0.36 0.005 0 0 0 2.15333
0.365 0.005 0 0 0 2.1528
0.37 0.005 0 0 0 2.15179
0.375 0.005 0 0 0 2.15027
0.38 0.005 0 0 0 2.14821
0.385 0.005 0 0 0 2.14559
0.39 0.005 0 0 0 2.14237
0.395 0.005 0 0 0 2.13855
0.4 0.005 0 0 0 2.1341
0.405 0.005 0 0 0 2.129
0.41 0.005 0 0 0 2.12324
0.415 0.005 0 0 0 2.1168
0.42 0.005 0 0 0 2.10968
0.425 0.005 0 0 0 2.10186
0.43 0.005 0 0 0 2.09335
0.435 0.005 0 0 0 2.08412
0.44 0.005 0 0 0 2.07418
0.445 0.005 0 0 0 2.06354
0.45 0.005 0 0 0 2.05218
0.455 0.005 0 0 0 2.04011
0.46 0.005 0 0 0 2.02734
0.465 0.005 0 0 0 2.01386
0.47 0.005 0 0 0 1.9997
0.475 0.005 0 0 0 1.98484
0.48 0.005 0 0 0 1.96932
0.485 0.005 0 0 0 1.95312
0.49 0.005 0 0 0 1.93628
0.495 0.005 0 0 0 1.9188
0.5 0.005 0 0 0 1.90069
0.505 0.005 0 0 0 1.88198
0.51 0.005 0 0 0 1.86267
0.515 0.005 0 0 0 1.84279
0.52 0.005 0 0 0 1.82236
0.525 0.005 0 0 0 1.80139
0.53 0.005 0 0 0 1.77991
0.535 0.005 0 0 0 1.75793
0.54 0.005 0 0 0 1.73548
0.545 0.005 0 0 0 1.71258
0.55 0.005 0 0 0 1.68925
0.555 0.005 0 0 0 1.66551
0.56 0.005 0 0 0 1.64138
0.565 0.005 0 0 0 1.6169
0.57 0.005 0 0 0 1.59208
0.575 0.005 0 0 0 1.56694
0.58 0.005 0 0 0 1.54151
0.585 0.005 0 0 0 1.51581
0.59 0.005 0 0 0 1.48986
0.595 0.005 0 0 0 1.46369
0.6 0.005 0 0 0 1.43732
0.605 0.005 0 0 0 1.41077
0.61 0.005 0 0 0 1.38406
0.615 0.005 0 0 0 1.35722
0.62 0.005 0 0 0 1.33026
0.625 0.005 0 0 0 1.30321
0.63 0.005 0 0 0 1.27609
0.635 0.005 0 0 0 1.24891
0.64 0.005 0 0 0 1.2217
0.645 0.005 0 0 0 1.19448
0.65 0.005 0 0 0 1.16725
0.655 0.005 0 0 0 1.14005
0.66 0.005 0 0 0 1.11289
0.665 0.005 0 0 0 1.08579
0.67 0.005 0 0 0 1.05876
0.675 0.005 0 0 0 1.03181
0.68 0.005 0 0 0 1.00497
0.685 0.005 0 0 0 0.97824
0.69 0.005 0 0 0 0.951646
0.695 0.005 0 0 0 0.925196
0.7 0.005 0 0 0 0.898904
0.705 0.005 0 0 0 0.872784
0.71 0.005 0 0 0 0.846846
0.715 0.005 0 0 0 0.821102
0.72 0.005 0 0 0 0.795564
0.725 0.005 0 0 0 0.770243
0.73 0.005 0 0 0 0.74515
0.735 0.005 0 0 0 0.720293
0.74 0.005 0 0 0 0.695684
0.745 0.005 0 0 0 0.671332
0.75 0.005 0 0 0 0.647246
0.755 0.005 0 0 0 0.623435
0.76 0.005 0 0 0 0.599908
0.765 0.005 0 0 0 0.576674
0.77 0.005 0 0 0 0.553741
0.775 0.005 0 0 0 0.531117
0.78 0.005 0 0 0 0.508812
0.785 0.005 0 0 0 0.486833
0.79 0.005 0 0 0 0.465189
0.795 0.005 0 0 0 0.443887
0.8 0.005 0 0 0 0.422937
0.805 0.005 0 0 0 0.402346
0.81 0.005 0 0 0 0.382124
0.815 0.005 0 0 0 0.362278
0.82 0.005 0 0 0 0.342818
0.825 0.005 0 0 0 0.323752
0.83 0.005 0 0 0 0.305089
0.835 0.005 0 0 0 0.28684
0.84 0.005 0 0 0 0.269014
0.845 0.005 0 0 0 0.25162
0.85 0.005 0 0 0 0.234669
0.855 0.005 0 0 0 0.218172
0.86 0.005 0 0 0 0.20214
0.865 0.005 0 0 0 0.186585
0.87 0.005 0 0 0 0.171518
0.875 0.005 0 0 0 0.156952
0.88 0.005 0 0 0 0.1429
0.885 0.005 0 0 0 0.129375
0.89 0.005 0 0 0 0.116393
0.895 0.005 0 0 0 0.103967
0.9 0.005 0 0 0 0.0921143
0.905 0.005 0 0 0 0.0808501
0.91 0.005 0 0 0 0.0701918
0.915 0.005 0 0 0 0.0601575
0.92 0.005 0 0 0 0.0507658
0.925 0.005 0 0 0 0.0420363
0.93 0.005 0 0 0 0.0339895
0.935 0.005 0 0 0 0.0266461
0.94 0.005 0 0 0 0.0200278
0.945 0.005 0 0 0 0.0141562
0.95 0.005 0 0 0 0.00905267
0.955 0.005 0 0 0 0.00473729
0.96 0.005 0 0 0 0.00122779
0.965 0.005 0 0 0 -0.00146273
0.97 0.005 0 0 0 -0.00332912
0.975 0.005 0 0 0 -0.00437982
0.98 0.005 0 0 0 -0.00464619
0.985 0.005 0 0 0 -0.0041985
0.99 0.005 0 0 0 -0.00317334
0.995 0.005 0 0 0 -0.00181882
1 0.005 0 0 0 -0.000556601
0 0.01 0 0 -0.000556601 0
0.005 0.01 0 0 0 -326.276
0.01 0.01 -0.179943 0.0774683 -0.000921549 -44.4831
0.015 0.01 -0.184443 -0.0352718 -0.000774683 9.4432
0.02 0.01 -0.155622 -0.0353787 -0.000568831 19.0589
0.025 0.01 -0.12665 -0.0246415 -0.000420896 18.9667
0.03 0.01 -0.103417 -0.0165074 -0.000322416 16.8489
0.035 0.01 -0.0856568 -0.0113348 -0.000255822 14.5906
0.04 0.01 -0.0721043 -0.00808724 -0.000209067 12.6218
0.045 0.01 -0.0616294 -0.00598627 -0.000174949 10.9908
0.05 0.01 -0.0533986 -0.00457098 -0.000149205 9.65425
0.055 0.01 -0.0468248 -0.00357948 -0.000129239 8.55622
0.06 0.01 -0.0414962 -0.00286073 -0.00011341 7.64776
0.065 0.01 -0.0371203 -0.00232461 -0.000100632 6.88995
0.07 0.01 -0.0334858 -0.0019151 -9.01637e-05 6.25266
0.075 0.01 -0.0304372 -0.00159606 -8.14808e-05 5.71262
0.08 0.01 -0.0278579 -0.00134331 -7.42029e-05 5.25182
0.085 0.01 -0.025659 -0.00114018 -6.80476e-05 4.85616
0.09 0.01 -0.0237721 -0.000974876 -6.2801e-05 4.51451
0.095 0.01 -0.0221432 -0.00083888 -5.82987e-05 4.21801
0.1 0.01 -0.0207298 -0.000725894 -5.44121e-05 3.95953
0.105 0.01 -0.0194979 -0.0006312 -5.10396e-05 3.73328
0.11 0.01 -0.0184196 -0.000551207 -4.81e-05 3.53454
0.115 0.01 -0.0174727 -0.000483143 -4.55274e-05 3.35942
0.12 0.01 -0.0166384 -0.000424848 -4.32684e-05 3.20468
0.125 0.01 -0.0159015 -0.000374619 -4.12788e-05 3.06762
0.13 0.01 -0.0152491 -0.000331099 -3.95221e-05 2.94597
0.135 0.01 -0.0146704 -0.0002932 -3.79677e-05 2.83783
0.14 0.01 -0.0141564 -0.000260041 -3.659e-05 2.74154
0.145 0.01 -0.0136991 -0.000230905 -3.53672e-05 2.65573
0.15 0.01 -0.0132921 -0.000205201 -3.42808e-05 2.57919
0.155 0.01 -0.0129296 -0.000182444 -3.33151e-05 2.5109
0.16 0.01 -0.0126066 -0.00016223 -3.24563e-05 2.44994
0.165 0.01 -0.0123189 -0.000144219 -3.16927e-05 2.39555
0.17 0.01 -0.0120628 -0.000128128 -3.10141e-05 2.34703
0.175 0.01 -0.0118349 -0.000113719 -3.04114e-05 2.30378
0.18 0.01 -0.0116324 -0.000100786 -2.98768e-05 2.26528
0.185 0.01 -0.0114528 -8.91579e-05 -2.94035e-05 2.23105
0.19 0.01 -0.0112938 -7.86858e-05 -2.89852e-05 2.20068
0.195 0.01 -0.0111533 -6.92426e-05 -2.86166e-05 2.17378
0.2 0.01 -0.0110296 -6.07186e-05 -2.82928e-05 2.15004
0.205 0.01 -0.0109211 -5.30189e-05 -2.80094e-05 2.12914
0.21 0.01 -0.0108262 -4.60612e-05 -2.77626e-05 2.11081
0.215 0.01 -0.0107438 -3.97736e-05 -2.75488e-05 2.09481
0.22 0.01 -0.0106726 -3.40935e-05 -2.73649e-05 2.08092
0.225 0.01 -0.0106115 -2.89659e-05 -2.72079e-05 2.06893
0.23 0.01 -0.0105595 -2.43425e-05 -2.70753e-05 2.05866
0.235 0.01 -0.0105158 -2.01806e-05 -2.69645e-05 2.04993
0.24 0.01 -0.0104794 -1.64426e-05 -2.68735e-05 2.0426
0.245 0.01 -0.0104497 -1.30951e-05 -2.68002e-05 2.0365
0.25 0.01 -0.0104259 -1.01081e-05 -2.67426e-05 2.03153
0.255 0.01 -0.0104074 -7.45535e-06 -2.66992e-05 2.02753
0.26 0.01 -0.0103936 -5.11288e-06 -2.66682e-05 2.02442
0.265 0.01 -0.0103838 -3.05938e-06 -2.66481e-05 2.02207
0.27 0.01 -0.0103777 -1.27558e-06 -2.66377e-05 2.02039
0.275 0.01 -0.0103746 2.55951e-07 -2.66355e-05 2.01928
0.28 0.01 -0.0103741 1.55104e-06 -2.66404e-05 2.01866
0.285 0.01 -0.0103758 2.62413e-06 -2.66511e-05 2.01844
0.29 0.01 -0.0103793 3.48844e-06 -2.66667e-05 2.01856
0.295 0.01 -0.0103842 4.15613e-06 -2.66862e-05 2.01893
0.3 0.01 -0.0103902 4.63844e-06 -2.67085e-05 2.01948
0.305 0.01 -0.0103968 4.9458e-06 -2.67327e-05 2.02017
0.31 0.01 -0.0104038 5.08794e-06 -2.67581e-05 2.02091
0.315 0.01 -0.0104109 5.07399e-06 -2.67838e-05 2.02166
0.32 0.01 -0.0104178 4.91254e-06 -2.6809e-05 2.02236
0.325 0.01 -0.0104242 4.61171e-06 -2.68331e-05 2.02297
0.33 0.01 -0.0104299 4.17924e-06 -2.68554e-05 2.02343
0.335 0.01 -0.0104346 3.62252e-06 -2.68751e-05 2.0237
0.34 0.01 -0.010438 2.94863e-06 -2.68918e-05 2.02373
0.345 0.01 -0.0104401 2.1644e-06 -2.69048e-05 2.02349
0.35 0.01 -0.0104405 1.27644e-06 -2.69137e-05 2.02294
0.355 0.01 -0.0104392 2.91142e-07 -2.69179e-05 2.02205
0.36 0.01 -0.0104358 -7.85247e-07 -2.69169e-05 2.02077
0.365 0.01 -0.0104304 -1.94665e-06 -2.69103e-05 2.01909
0.37 0.01 -0.0104226 -3.1871e-06 -2.68977e-05 2.01697
0.375 0.01 -0.0104124 -4.50078e-06 -2.68787e-05 2.01439
0.38 0.01 -0.0103996 -5.88195e-06 -2.68529e-05 2.01132
0.385 0.01 -0.0103841 -7.32498e-06 -2.68201e-05 2.00775
0.39 0.01 -0.0103658 -8.82434e-06 -2.678e-05 2.00364
0.395 0.01 -0.0103447 -1.03746e-05 -2.67322e-05 1.99899
0.4 0.01 -0.0103205 -1.19703e-05 -2.66765e-05 1.99378
0.405 0.01 -0.0102933 -1.36064e-05 -2.66128e-05 1.98799
0.41 0.01 -0.010263 -1.52774e-05 -2.65408e-05 1.98161
0.415 0.01 -0.0102295 -1.69784e-05 -2.64603e-05 1.97463
0.42 0.01 -0.0101927 -1.87044e-05 -2.63713e-05 1.96704
0.425 0.01 -0.0101527 -2.04503e-05 -2.62736e-05 1.95884
0.43 0.01 -0.0101093 -2.22115e-05 -2.61671e-05 1.95002
0.435 0.01 -0.0100627 -2.39832e-05 -2.60518e-05 1.94058
0.44 0.01 -0.0100127 -2.57607e-05 -2.59276e-05 1.93051
0.445 0.01 -0.00995931 -2.75397e-05 -2.57945e-05 1.91982
0.45 0.01 -0.00990261 -2.93158e-05 -2.56526e-05 1.9085
0.455 0.01 -0.00984259 -3.10847e-05 -2.55017e-05 1.89656
0.46 0.01 -0.00977926 -3.28423e-05 -2.53421e-05 1.884
0.465 0.01 -0.00971264 -3.45848e-05 -2.51736e-05 1.87083
0.47 0.01 -0.00964277 -3.63082e-05 -2.49965e-05 1.85706
0.475 0.01 -0.0095697 -3.80091e-05 -2.48109e-05 1.84268
0.48 0.01 -0.00949347 -3.96839e-05 -2.46168e-05 1.82772
0.485 0.01 -0.00941413 -4.13293e-05 -2.44144e-05 1.81219
0.49 0.01 -0.00933174 -4.29421e-05 -2.42038e-05 1.79608
0.495 0.01 -0.00924637 -4.45195e-05 -2.39853e-05 1.77942
0.5 0.01 -0.00915809 -4.60586e-05 -2.3759e-05 1.76223
0.505 0.01 -0.00906698 -4.75569e-05 -2.3525e-05 1.7445
0.51 0.01 -0.00897311 -4.9012e-05 -2.32837e-05 1.72627
0.515 0.01 -0.00887657 -5.04215e-05 -2.30352e-05 1.70754
0.52 0.01 -0.00877744 -5.17836e-05 -2.27798e-05 1.68833
0.525 0.01 -0.00867582 -5.30964e-05 -2.25177e-05 1.66866
0.53 0.01 -0.00857181 -5.43582e-05 -2.22492e-05 1.64855
0.535 0.01 -0.00846549 -5.55676e-05 -2.19745e-05 1.62802
0.54 0.01 -0.00835698 -5.67232e-05 -2.16938e-05 1.60707
0.545 0.01 -0.00824637 -5.78241e-05 -2.14075e-05 1.58574
0.55 0.01 -0.00813376 -5.88693e-05 -2.11159e-05 1.56404
0.555 0.01 -0.00801927 -5.9858e-05 -2.08191e-05 1.54199
0.56 0.01 -0.00790299 -6.07897e-05 -2.05176e-05 1.51962
0.565 0.01 -0.00778504 -6.16641e-05 -2.02115e-05 1.49694
0.57 0.01 -0.00766552 -6.24809e-05 -1.99012e-05 1.47396
0.575 0.01 -0.00754454 -6.32399e-05 -1.9587e-05 1.45072
0.58 0.01 -0.00742222 -6.39414e-05 -1.92691e-05 1.42723
0.585 0.01 -0.00729864 -6.45855e-05 -1.89478e-05 1.40352
0.59 0.01 -0.00717393 -6.51725e-05 -1.86235e-05 1.37959
0.595 0.01 -0.00704819 -6.5703e-05 -1.82964e-05 1.35548
0.6 0.01 -0.00692153 -6.61776e-05 -1.79667e-05 1.33119
0.605 0.01 -0.00679404 -6.65968e-05 -1.76348e-05 1.30676
0.61 0.01 -0.00666583 -6.69617e-05 -1.7301e-05 1.28219
0.615 0.01 -0.006537 -6.7273e-05 -1.69654e-05 1.25752
0.62 0.01 -0.00640766 -6.75318e-05 -1.66285e-05 1.23275
0.625 0.01 -0.00627789 -6.77391e-05 -1.62903e-05 1.2079
0.63 0.01 -0.0061478 -6.78961e-05 -1.59513e-05 1.183
0.635 0.01 -0.00601747 -6.80039e-05 -1.56116e-05 1.15805
0.64 0.01 -0.00588699 -6.80638e-05 -1.52715e-05 1.13308
0.645 0.01 -0.00575646 -6.80771e-05 -1.49311e-05 1.1081
0.65 0.01 -0.00562596 -6.80451e-05 -1.45909e-05 1.08313
0.655 0.01 -0.00549558 -6.79691e-05 -1.42509e-05 1.05819
0.66 0.01 -0.00536539 -6.78504e-05 -1.39113e-05 1.03328
0.665 0.01 -0.00523547 -6.76905e-05 -1.35725e-05 1.00843
0.67 0.01 -0.0051059 -6.74907e-05 -1.32346e-05 0.983642
0.675 0.01 -0.00497675 -6.72524e-05 -1.28978e-05 0.958937
0.68 0.01 -0.0048481 -6.69768e-05 -1.25622e-05 0.934327
0.685 0.01 -0.00472001 -6.66653e-05 -1.22281e-05 0.909823
0.69 0.01 -0.00459255 -6.63193e-05 -1.18957e-05 0.885439
0.695 0.01 -0.00446577 -6.59398e-05 -1.15651e-05 0.861187
0.7 0.01 -0.00433975 -6.55283e-05 -1.12364e-05 0.837077
0.705 0.01 -0.00421454 -6.50858e-05 -1.09099e-05 0.813121
0.71 0.01 -0.00409021 -6.46136e-05 -1.05857e-05 0.789329
0.715 0.01 -0.00396679 -6.41126e-05 -1.02639e-05 0.765713
0.72 0.01 -0.00384435 -6.35838e-05 -9.94466e-06 0.742281
0.725 0.01 -0.00372295 -6.30284e-05 -9.62814e-06 0.719044
0.73 0.01 -0.00360262 -6.24471e-05 -9.31446e-06 0.696011
0.735 0.01 -0.00348341 -6.18407e-05 -9.00375e-06 0.673192
0.74 0.01 -0.00336538 -6.12101e-05 -8.69613e-06 0.650594
0.745 0.01 -0.00324857 -6.0556e-05 -8.39172e-06 0.628226
0.75 0.01 -0.00313302 -5.98789e-05 -8.09064e-06 0.606097
0.755 0.01 -0.00301878 -5.91794e-05 -7.793e-06 0.584216
0.76 0.01 -0.00290588 -5.8458e-05 -7.49891e-06 0.562589
0.765 0.01 -0.00279438 -5.77151e-05 -7.20848e-06 0.541226
0.77 0.01 -0.0026843 -5.69509e-05 -6.92181e-06 0.520133
0.775 0.01 -0.0025757 -5.61659e-05 -6.63901e-06 0.499319
0.78 0.01 -0.0024686 -5.536e-05 -6.36019e-06 0.478791
0.785 0.01 -0.00236306 -5.45334e-05 -6.08545e-06 0.458557
0.79 0.01 -0.00225911 -5.36862e-05 -5.8149e-06 0.438624
0.795 0.01 -0.00215678 -5.28182e-05 -5.54862e-06 0.419
0.8 0.01 -0.00205613 -5.19293e-05 -5.28674e-06 0.399694
0.805 0.01 -0.00195719 -5.10194e-05 -5.02936e-06 0.380712
0.81 0.01 -0.00186 -5.00881e-05 -4.77657e-06 0.362063
0.815 0.01 -0.0017646 -4.91351e-05 -4.5285e-06 0.343754
0.82 0.01 -0.00167104 -4.81599e-05 -4.28524e-06 0.325795
0.825 0.01 -0.00157936 -4.7162e-05 -4.04691e-06 0.308192
0.83 0.01 -0.0014896 -4.61409e-05 -3.81363e-06 0.290956
0.835 0.01 -0.00140181 -4.5096e-05 -3.58551e-06 0.274094
0.84 0.01 -0.00131603 -4.40264e-05 -3.36268e-06 0.257616
0.845 0.01 -0.00123232 -4.29314e-05 -3.14525e-06 0.241532
0.85 0.01 -0.00115073 -4.181e-05 -2.93337e-06 0.22585
0.855 0.01 -0.0010713 -4.06614e-05 -2.72715e-06 0.210581
0.86 0.01 -0.000994094 -3.94846e-05 -2.52675e-06 0.195736
0.865 0.01 -0.000919162 -3.82782e-05 -2.33231e-06 0.181325
0.87 0.01 -0.000846564 -3.70413e-05 -2.14397e-06 0.167359
0.875 0.01 -0.000776359 -3.57724e-05 -1.96189e-06 0.153849
0.88 0.01 -0.000708611 -3.44701e-05 -1.78624e-06 0.140809
0.885 0.01 -0.000643384 -3.3133e-05 -1.61719e-06 0.12825
0.89 0.01 -0.000580747 -3.17594e-05 -1.45491e-06 0.116185
0.895 0.01 -0.000520772 -3.03477e-05 -1.29959e-06 0.104628
0.9 0.01 -0.00046353 -2.8896e-05 -1.15142e-06 0.0935927
0.905 0.01 -0.000409101 -2.74024e-05 -1.01062e-06 0.0830936
0.91 0.01 -0.000357563 -2.58651e-05 -8.77391e-07 0.0731457
0.915 0.01 -0.000309 -2.42818e-05 -7.51961e-07 0.0637643
0.92 0.01 -0.000263499 -2.26507e-05 -6.34565e-07 0.0549652
0.925 0.01 -0.000221148 -2.09697e-05 -5.25447e-07 0.0467644
0.93 0.01 -0.000182038 -1.92371e-05 -4.24862e-07 0.0391779
0.935 0.01 -0.000146263 -1.74514e-05 -3.3307e-07 0.0322219
0.94 0.01 -0.000113915 -1.56117e-05 -2.50342e-07 0.0259117
0.945 0.01 -8.50844e-05 -1.37184e-05 -1.76948e-07 0.0202618
0.95 0.01 -5.98582e-05 -1.17732e-05 -1.13154e-07 0.0152849
0.955 0.01 -3.83123e-05 -9.78063e-06 -5.9212e-08 0.0109908
0.96 0.01 -2.05067e-05 -7.74961e-06 -1.53438e-08 0.00738456
0.965 0.01 -6.47417e-06 -5.69578e-06 1.82871e-08 0.00446459
0.97 0.01 3.79572e-06 -3.64607e-06 4.16163e-08 0.00221877
0.975 0.01 1.03811e-05 -1.6461e-06 5.47495e-08 0.000619609
0.98 0.01 1.34656e-05 2.26827e-07 5.80785e-08 -0.00038299
0.985 0.01 1.33964e-05 1.84118e-06 5.24819e-08 -0.000871343
0.99 0.01 1.07717e-05 2.97466e-06 3.9667e-08 -0.000970687
0.995 0.01 6.5642e-06 3.27095e-06 2.27353e-08 -0.00085303
1 0.01 2.26988e-06 2.27353e-06 6.95747e-09 -0.00070418
0 0.015 0 0 -0.0018159 0
0.005 0.015 0 0 0 -256.045
0.01 0.015 -0.152614 0.184443 -0.00179943 -79.3629
0.015 0.015 -0.205597 -0.0243218 -0.00184443 -16.6696
0.02 0.015 -0.20364 -0.0577928 -0.00155622 2.40504
0.025 0.015 -0.183652 -0.052205 -0.0012665 8.10699
0.03 0.015 -0.160597 -0.0409937 -0.00103417 9.48832
0.035 0.015 -0.139443 -0.0313125 -0.000856568 9.40059
0.04 0.015 -0.121384 -0.0240273 -0.000721043 8.82675
0.045 0.015 -0.106342 -0.0187056 -0.000616294 8.12664
0.05 0.015 -0.0938844 -0.0148046 -0.000533986 7.43404
0.055 0.015 -0.0835467 -0.0119024 -0.000468248 6.79605
0.06 0.015 -0.0749215 -0.00970451 -0.000414962 6.22556
0.065 0.015 -0.0676777 -0.00801034 -0.000371203 5.72199
0.07 0.015 -0.0615526 -0.00668305 -0.000334858 5.27984
0.075 0.015 -0.0563394 -0.00562791 -0.000304372 4.89219
0.08 0.015 -0.051875 -0.00477813 -0.000278578 4.55216
0.085 0.015 -0.0480302 -0.00408578 -0.00025659 4.25344
0.09 0.015 -0.044702 -0.0035158 -0.00023772 3.9905
0.095 0.015 -0.0418074 -0.00304219 -0.000221432 3.75854
0.1 0.015 -0.0392794 -0.0026453 -0.000207298 3.55345
0.105 0.015 -0.0370631 -0.00231014 -0.000194978 3.37171
0.11 0.015 -0.0351138 -0.00202512 -0.000184196 3.21033
0.115 0.015 -0.033394 -0.00178116 -0.000174726 3.06676
0.12 0.015 -0.0318728 -0.00157111 -0.000166384 2.93882
0.125 0.015 -0.0305242 -0.00138927 -0.000159015 2.82463
0.13 0.015 -0.0293264 -0.00123104 -0.000152491 2.72257
0.135 0.015 -0.0282608 -0.00109272 -0.000146704 2.63127
0.14 0.015 -0.0273116 -0.000971275 -0.000141563 2.54952
0.145 0.015 -0.0264652 -0.000864229 -0.000136991 2.47626
0.15 0.015 -0.0257099 -0.000769527 -0.000132921 2.4106
0.155 0.015 -0.0250358 -0.000685464 -0.000129295 2.35173
0.16 0.015 -0.024434 -0.000610618 -0.000126066 2.29895
0.165 0.015 -0.0238968 -0.000543791 -0.000123189 2.25165
0.17 0.015 -0.0234176 -0.000483976 -0.000120628 2.20928
0.175 0.015 -0.0229905 -0.000430316 -0.000118349 2.17136
0.18 0.015 -0.0226103 -0.000382085 -0.000116324 2.13745
0.185 0.015 -0.0222723 -0.000338659 -0.000114528 2.10718
0.19 0.015 -0.0219724 -0.000299504 -0.000112938 2.08019
0.195 0.015 -0.0217069 -0.000264159 -0.000111533 2.05618
0.2 0.015 -0.0214727 -0.000232227 -0.000110296 2.03487
0.205 0.015 -0.0212665 -0.000203361 -0.000109211 2.016
0.21 0.015 -0.0210859 -0.000177262 -0.000108262 1.99935
0.215 0.015 -0.0209284 -0.000153665 -0.000107438 1.9847
0.22 0.015 -0.0207918 -0.000132342 -0.000106726 1.97187
0.225 0.015 -0.020674 -0.00011309 -0.000106115 1.96068
0.23 0.015 -0.0205732 -9.57299e-05 -0.000105595 1.95097
0.235 0.015 -0.0204878 -8.01051e-05 -0.000105158 1.9426
0.24 0.015 -0.0204161 -6.60755e-05 -0.000104794 1.93542
0.245 0.015 -0.0203568 -5.35171e-05 -0.000104497 1.92932
0.25 0.015 -0.0203085 -4.23189e-05 -0.00010426 1.92417
0.255 0.015 -0.0202701 -3.23819e-05 -0.000104074 1.91987
0.26 0.015 -0.0202403 -2.3617e-05 -0.000103936 1.91632
0.265 0.015 -0.0202181 -1.59442e-05 -0.000103839 1.91343
0.27 0.015 -0.0202026 -9.29107e-06 -0.000103777 1.9111
0.275 0.015 -0.0201927 -3.59194e-06 -0.000103746 1.90925
0.28 0.015 -0.0201876 1.21294e-06 -0.000103742 1.90781
0.285 0.015 -0.0201866 5.17822e-06 -0.000103759 1.90671
0.29 0.015 -0.0201888 8.354e-06 -0.000103794 1.90587
0.295 0.015 -0.0201935 1.07865e-05 -0.000103843 1.90524
0.3 0.015 -0.0202 1.25185e-05 -0.000103903 1.90475
0.305 0.015 -0.0202078 1.35897e-05 -0.000103969 1.90435
0.31 0.015 -0.0202162 1.40374e-05 -0.000104039 1.90399
0.315 0.015 -0.0202245 1.38964e-05 -0.00010411 1.90361
0.32 0.015 -0.0202324 1.31995e-05 -0.000104179 1.90317
0.325 0.015 -0.0202393 1.1978e-05 -0.000104243 1.90262
0.33 0.015 -0.0202447 1.02614e-05 -0.0001043 1.90192
0.335 0.015 -0.0202481 8.0782e-06 -0.000104346 1.90104
0.34 0.015 -0.0202492 5.45548e-06 -0.000104381 1.89993
0.345 0.015 -0.0202475 2.41944e-06 -0.000104402 1.89857
0.35 0.015 -0.0202427 -1.00459e-06 -0.000104406 1.89691
0.355 0.015 -0.0202344 -4.79208e-06 -0.000104393 1.89493
0.36 0.015 -0.0202222 -8.91913e-06 -0.000104359 1.89261
0.365 0.015 -0.020206 -1.33625e-05 -0.000104305 1.88991
0.37 0.015 -0.0201854 -1.80993e-05 -0.000104227 1.88682
0.375 0.015 -0.0201601 -2.31075e-05 -0.000104125 1.8833
0.38 0.015 -0.0201299 -2.83651e-05 -0.000103997 1.87935
0.385 0.015 -0.0200946 -3.38507e-05 -0.000103842 1.87494
0.39 0.015 -0.020054 -3.95433e-05 -0.00010366 1.87006
0.395 0.015 -0.0200079 -4.54223e-05 -0.000103448 1.86468
0.4 0.015 -0.0199561 -5.14672e-05 -0.000103206 1.85881
0.405 0.015 -0.0198986 -5.76583e-05 -0.000102934 1.85243
0.41 0.015 -0.0198351 -6.39758e-05 -0.000102631 1.84552
0.415 0.015 -0.0197656 -7.04006e-05 -0.000102296 1.83808
0.42 0.015 -0.01969 -7.69138e-05 -0.000101928 1.83011
0.425 0.015 -0.0196083 -8.3497e-05 -0.000101528 1.8216
0.43 0.015 -0.0195202 -9.01322e-05 -0.000101095 1.81254
0.435 0.015 -0.019426 -9.68016e-05 -0.000100628 1.80294
0.44 0.015 -0.0193254 -0.000103488 -0.000100128 1.79279
0.445 0.015 -0.0192186 -0.000110175 -9.95944e-05 1.78209
0.45 0.015 -0.0191055 -0.000116847 -9.90274e-05 1.77085
0.455 0.015 -0.0189862 -0.000123486 -9.84272e-05 1.75907
0.46 0.015 -0.0188606 -0.00013008 -9.77939e-05 1.74675
0.465 0.015 -0.0187289 -0.000136612 -9.71277e-05 1.73391
0.47 0.015 -0.0185911 -0.000143068 -9.6429e-05 1.72054
0.475 0.015 -0.0184473 -0.000149437 -9.56983e-05 1.70665
0.48 0.015 -0.0182977 -0.000155703 -9.4936e-05 1.69226
0.485 0.015 -0.0181422 -0.000161856 -9.41426e-05 1.67737
0.49 0.015 -0.017981 -0.000167885 -9.33187e-05 1.66199
0.495 0.015 -0.0178143 -0.000173777 -9.2465e-05 1.64614
0.5 0.015 -0.0176421 -0.000179523 -9.15822e-05 1.62982
0.505 0.015 -0.0174647 -0.000185113 -9.06711e-05 1.61305
0.51 0.015 -0.0172821 -0.00019054 -8.97323e-05 1.59585
0.515 0.015 -0.0170945 -0.000195794 -8.87669e-05 1.57822
0.52 0.015 -0.0169022 -0.000200868 -8.77756e-05 1.56019
0.525 0.015 -0.0167052 -0.000205756 -8.67595e-05 1.54176
0.53 0.015 -0.0165038 -0.000210452 -8.57193e-05 1.52296
0.535 0.015 -0.0162981 -0.00021495 -8.46561e-05 1.5038
0.54 0.015 -0.0160883 -0.000219246 -8.3571e-05 1.48429
0.545 0.015 -0.0158747 -0.000223336 -8.24649e-05 1.46445
0.55 0.015 -0.0156573 -0.000227217 -8.13388e-05 1.44431
0.555 0.015 -0.0154364 -0.000230886 -8.01938e-05 1.42387
0.56 0.015 -0.0152123 -0.000234341 -7.9031e-05 1.40315
0.565 0.015 -0.0149851 -0.000237581 -7.78515e-05 1.38217
0.57 0.015 -0.0147549 -0.000240606 -7.66563e-05 1.36096
0.575 0.015 -0.0145221 -0.000243415 -7.54465e-05 1.33951
0.58 0.015 -0.0142868 -0.000246008 -7.42232e-05 1.31786
0.585 0.015 -0.0140492 -0.000248387 -7.29874e-05 1.29602
0.59 0.015 -0.0138095 -0.000250552 -7.17403e-05 1.27401
0.595 0.015 -0.0135679 -0.000252506 -7.04829e-05 1.25184
0.6 0.015 -0.0133246 -0.000254252 -6.92162e-05 1.22953
0.605 0.015 -0.0130798 -0.00025579 -6.79413e-05 1.2071
0.61 0.015 -0.0128337 -0.000257126 -6.66592e-05 1.18456
0.615 0.015 -0.0125865 -0.000258262 -6.53709e-05 1.16193
0.62 0.015 -0.0123383 -0.000259201 -6.40774e-05 1.13923
0.625 0.015 -0.0120894 -0.000259949 -6.27797e-05 1.11647
0.63 0.015 -0.0118399 -0.000260508 -6.14788e-05 1.09366
0.635 0.015 -0.01159 -0.000260884 -6.01754e-05 1.07083
0.64 0.015 -0.0113399 -0.000261081 -5.88707e-05 1.04798
0.645 0.015 -0.0110897 -0.000261104 -5.75654e-05 1.02513
0.65 0.015 -0.0108395 -0.000260958 -5.62604e-05 1.00229
0.655 0.015 -0.0105897 -0.000260647 -5.49565e-05 0.979476
0.66 0.015 -0.0103402 -0.000260177 -5.36545e-05 0.956703
0.665 0.015 -0.0100912 -0.000259553 -5.23553e-05 0.933982
0.67 0.015 -0.00984293 -0.00025878 -5.10596e-05 0.911324
0.675 0.015 -0.00959547 -0.000257862 -4.97681e-05 0.888742
0.68 0.015 -0.00934896 -0.000256805 -4.84816e-05 0.866248
0.685 0.015 -0.00910353 -0.000255613 -4.72006e-05 0.843851
0.69 0.015 -0.0088593 -0.000254292 -4.5926e-05 0.821563
0.695 0.015 -0.00861639 -0.000252845 -4.46582e-05 0.799394
0.7 0.015 -0.00837491 -0.000251278 -4.3398e-05 0.777354
0.705 0.015 -0.00813498 -0.000249594 -4.21459e-05 0.755453
0.71 0.015 -0.00789671 -0.000247799 -4.09025e-05 0.7337
0.715 0.015 -0.00766019 -0.000245895 -3.96683e-05 0.712105
0.72 0.015 -0.00742553 -0.000243887 -3.84439e-05 0.690675
0.725 0.015 -0.00719283 -0.000241777 -3.72298e-05 0.66942
0.73 0.015 -0.00696217 -0.00023957 -3.60265e-05 0.648347
0.735 0.015 -0.00673364 -0.000237268 -3.48344e-05 0.627465
0.74 0.015 -0.00650735 -0.000234875 -3.36541e-05 0.606782
0.745 0.015 -0.00628337 -0.000232392 -3.2486e-05 0.586305
0.75 0.015 -0.00606178 -0.000229821 -3.13305e-05 0.566042
0.755 0.015 -0.00584267 -0.000227165 -3.0188e-05 0.546001
0.76 0.015 -0.00562612 -0.000224426 -2.90591e-05 0.526187
0.765 0.015 -0.00541221 -0.000221605 -2.7944e-05 0.50661
0.77 0.015 -0.00520101 -0.000218702 -2.68432e-05 0.487275
0.775 0.015 -0.0049926 -0.000215719 -2.57572e-05 0.468189
0.78 0.015 -0.00478706 -0.000212656 -2.46862e-05 0.449361
0.785 0.015 -0.00458447 -0.000209514 -2.36308e-05 0.430796
0.79 0.015 -0.00438489 -0.000206292 -2.25912e-05 0.412502
0.795 0.015 -0.00418842 -0.00020299 -2.1568e-05 0.394486
0.8 0.015 -0.00399512 -0.000199608 -2.05614e-05 0.376755
0.805 0.015 -0.00380507 -0.000196145 -1.9572e-05 0.359316