Title=" Lid Driven Flow"
VARIABLES="X","Y","U","V","psi","xi"
ZONE T= "BOX", I= 201, J=201, F=POINT
0 0 0 0 0.00343574 0
0.005 0 0 0 0 0
0.01 0 0 0 0 0
0.015 0 0 0 0 161.891
0.02 0 0 0 0 176.121
0.025 0 0 0 0 155.598
0.03 0 0 0 0 133.203
0.035 0 0 0 0 115.679
0.04 0 0 0 0 102.821
0.045 0 0 0 0 93.286
0.05 0 0 0 0 85.9633
0.055 0 0 0 0 80.12
0.06 0 0 0 0 75.2976
0.065 0 0 0 0 71.2072
0.07 0 0 0 0 67.661
0.075 0 0 0 0 64.5323
0.08 0 0 0 0 61.7327
0.085 0 0 0 0 59.1987
0.09 0 0 0 0 56.8833
0.095 0 0 0 0 54.7512
0.1 0 0 0 0 52.7754
0.105 0 0 0 0 50.9348
0.11 0 0 0 0 49.2128
0.115 0 0 0 0 47.5958
0.12 0 0 0 0 46.073
0.125 0 0 0 0 44.6352
0.13 0 0 0 0 43.2748
0.135 0 0 0 0 41.9853
0.14 0 0 0 0 40.7611
0.145 0 0 0 0 39.5973
0.15 0 0 0 0 38.4895
0.155 0 0 0 0 37.4337
0.16 0 0 0 0 36.4266
0.165 0 0 0 0 35.4649
0.17 0 0 0 0 34.5456
0.175 0 0 0 0 33.6661
0.18 0 0 0 0 32.8237
0.185 0 0 0 0 32.0162
0.19 0 0 0 0 31.2413
0.195 0 0 0 0 30.4969
0.2 0 0 0 0 29.7812
0.205 0 0 0 0 29.0922
0.21 0 0 0 0 28.4283
0.215 0 0 0 0 27.7878
0.22 0 0 0 0 27.1692
0.225 0 0 0 0 26.5709
0.23 0 0 0 0 25.9917
0.235 0 0 0 0 25.4302
0.24 0 0 0 0 24.8853
0.245 0 0 0 0 24.3556
0.25 0 0 0 0 23.8402
0.255 0 0 0 0 23.338
0.26 0 0 0 0 22.848
0.265 0 0 0 0 22.3694
0.27 0 0 0 0 21.9012
0.275 0 0 0 0 21.4427
0.28 0 0 0 0 20.9932
0.285 0 0 0 0 20.5518
0.29 0 0 0 0 20.118
0.295 0 0 0 0 19.6911
0.3 0 0 0 0 19.2706
0.305 0 0 0 0 18.856
0.31 0 0 0 0 18.4468
0.315 0 0 0 0 18.0424
0.32 0 0 0 0 17.6427
0.325 0 0 0 0 17.2471
0.33 0 0 0 0 16.8553
0.335 0 0 0 0 16.4671
0.34 0 0 0 0 16.0821
0.345 0 0 0 0 15.7002
0.35 0 0 0 0 15.3211
0.355 0 0 0 0 14.9447
0.36 0 0 0 0 14.5709
0.365 0 0 0 0 14.1994
0.37 0 0 0 0 13.8303
0.375 0 0 0 0 13.4635
0.38 0 0 0 0 13.0988
0.385 0 0 0 0 12.7364
0.39 0 0 0 0 12.3763
0.395 0 0 0 0 12.0183
0.4 0 0 0 0 11.6627
0.405 0 0 0 0 11.3095
0.41 0 0 0 0 10.9587
0.415 0 0 0 0 10.6105
0.42 0 0 0 0 10.265
0.425 0 0 0 0 9.92237
0.43 0 0 0 0 9.58268
0.435 0 0 0 0 9.24614
0.44 0 0 0 0 8.91292
0.445 0 0 0 0 8.5832
0.45 0 0 0 0 8.25717
0.455 0 0 0 0 7.93503
0.46 0 0 0 0 7.61698
0.465 0 0 0 0 7.30324
0.47 0 0 0 0 6.99399
0.475 0 0 0 0 6.68947
0.48 0 0 0 0 6.38987
0.485 0 0 0 0 6.09541
0.49 0 0 0 0 5.80628
0.495 0 0 0 0 5.52268
0.5 0 0 0 0 5.24482
0.505 0 0 0 0 4.97286
0.51 0 0 0 0 4.70699
0.515 0 0 0 0 4.44738
0.52 0 0 0 0 4.19417
0.525 0 0 0 0 3.94751
0.53 0 0 0 0 3.70753
0.535 0 0 0 0 3.47435
0.54 0 0 0 0 3.24806
0.545 0 0 0 0 3.02874
0.55 0 0 0 0 2.81648
0.555 0 0 0 0 2.61132
0.56 0 0 0 0 2.4133
0.565 0 0 0 0 2.22243
0.57 0 0 0 0 2.03874
0.575 0 0 0 0 1.86219
0.58 0 0 0 0 1.69277
0.585 0 0 0 0 1.53043
0.59 0 0 0 0 1.37511
0.595 0 0 0 0 1.22674
0.6 0 0 0 0 1.08524
0.605 0 0 0 0 0.950491
0.61 0 0 0 0 0.822393
0.615 0 0 0 0 0.700818
0.62 0 0 0 0 0.58563
0.625 0 0 0 0 0.476684
0.63 0 0 0 0 0.373828
0.635 0 0 0 0 0.276898
0.64 0 0 0 0 0.185726
0.645 0 0 0 0 0.100138
0.65 0 0 0 0 0.0199536
0.655 0 0 0 0 -0.0550096
0.66 0 0 0 0 -0.124939
0.665 0 0 0 0 -0.190023
0.67 0 0 0 0 -0.250453
0.675 0 0 0 0 -0.306422
0.68 0 0 0 0 -0.358122
0.685 0 0 0 0 -0.405746
0.69 0 0 0 0 -0.449487
0.695 0 0 0 0 -0.489538
0.7 0 0 0 0 -0.52609
0.705 0 0 0 0 -0.559334
0.71 0 0 0 0 -0.58946
0.715 0 0 0 0 -0.616656
0.72 0 0 0 0 -0.641107
0.725 0 0 0 0 -0.662998
0.73 0 0 0 0 -0.68251
0.735 0 0 0 0 -0.699819
0.74 0 0 0 0 -0.715098
0.745 0 0 0 0 -0.728514
0.75 0 0 0 0 -0.740229
0.755 0 0 0 0 -0.750394
0.76 0 0 0 0 -0.759153
0.765 0 0 0 0 -0.766639
0.77 0 0 0 0 -0.772971
0.775 0 0 0 0 -0.778257
0.78 0 0 0 0 -0.782589
0.785 0 0 0 0 -0.786043
0.79 0 0 0 0 -0.788677
0.795 0 0 0 0 -0.790534
0.8 0 0 0 0 -0.791634
0.805 0 0 0 0 -0.791984
0.81 0 0 0 0 -0.791568
0.815 0 0 0 0 -0.790356
0.82 0 0 0 0 -0.788299
0.825 0 0 0 0 -0.785332
0.83 0 0 0 0 -0.781378
0.835 0 0 0 0 -0.776348
0.84 0 0 0 0 -0.770142
0.845 0 0 0 0 -0.762654
0.85 0 0 0 0 -0.753773
0.855 0 0 0 0 -0.74339
0.86 0 0 0 0 -0.731395
0.865 0 0 0 0 -0.717685
0.87 0 0 0 0 -0.702168
0.875 0 0 0 0 -0.684764
0.88 0 0 0 0 -0.665408
0.885 0 0 0 0 -0.644057
0.89 0 0 0 0 -0.620692
0.895 0 0 0 0 -0.595319
0.9 0 0 0 0 -0.567975
0.905 0 0 0 0 -0.538727
0.91 0 0 0 0 -0.507681
0.915 0 0 0 0 -0.474976
0.92 0 0 0 0 -0.440792
0.925 0 0 0 0 -0.405348
0.93 0 0 0 0 -0.368904
0.935 0 0 0 0 -0.331762
0.94 0 0 0 0 -0.294264
0.945 0 0 0 0 -0.256797
0.95 0 0 0 0 -0.219787
0.955 0 0 0 0 -0.183702
0.96 0 0 0 0 -0.149053
0.965 0 0 0 0 -0.116388
0.97 0 0 0 0 -0.0862973
0.975 0 0 0 0 -0.059403
0.98 0 0 0 0 -0.0363559
0.985 0 0 0 0 -0.0178119
0.99 0 0 0 0 -0.00438458
0.995 0 0 0 0 0.00347162
1 0 0 0 0 0.00573359
0 0.005 0 0 0 0
0.005 0.005 0 0 0 0
0.01 0.005 0 0 0 73.7283
0.015 0.005 0 0 0 62.0746
0.02 0.005 0 0 0 45.7353
0.025 0.005 0 0 0 33.9739
0.03 0.005 0 0 0 26.0754
0.035 0.005 0 0 0 20.6393
0.04 0.005 0 0 0 16.7254
0.045 0.005 0 0 0 13.7842
0.05 0.005 0 0 0 11.4979
0.055 0.005 0 0 0 9.67615
0.06 0.005 0 0 0 8.19942
0.065 0.005 0 0 0 6.9882
0.07 0.005 0 0 0 5.98692
0.075 0.005 0 0 0 5.15494
0.08 0.005 0 0 0 4.4614
0.085 0.005 0 0 0 3.88223
0.09 0.005 0 0 0 3.3982
0.095 0.005 0 0 0 2.99374
0.1 0.005 0 0 0 2.65609
0.105 0.005 0 0 0 2.37469
0.11 0.005 0 0 0 2.14081
0.115 0.005 0 0 0 1.94714
0.12 0.005 0 0 0 1.78758
0.125 0.005 0 0 0 1.65705
0.13 0.005 0 0 0 1.55128
0.135 0.005 0 0 0 1.4667
0.14 0.005 0 0 0 1.40032
0.145 0.005 0 0 0 1.34964
0.15 0.005 0 0 0 1.31256
0.155 0.005 0 0 0 1.28733
0.16 0.005 0 0 0 1.27248
0.165 0.005 0 0 0 1.2668
0.17 0.005 0 0 0 1.26927
0.175 0.005 0 0 0 1.27901
0.18 0.005 0 0 0 1.29533
0.185 0.005 0 0 0 1.31763
0.19 0.005 0 0 0 1.3454
0.195 0.005 0 0 0 1.37824
0.2 0.005 0 0 0 1.41578
0.205 0.005 0 0 0 1.45774
0.21 0.005 0 0 0 1.50386
0.215 0.005 0 0 0 1.55392
0.22 0.005 0 0 0 1.60774
0.225 0.005 0 0 0 1.66517
0.23 0.005 0 0 0 1.72604
0.235 0.005 0 0 0 1.79024
0.24 0.005 0 0 0 1.85764
0.245 0.005 0 0 0 1.92814
0.25 0.005 0 0 0 2.00163
0.255 0.005 0 0 0 2.07801
0.26 0.005 0 0 0 2.15718
0.265 0.005 0 0 0 2.23905
0.27 0.005 0 0 0 2.3235
0.275 0.005 0 0 0 2.41044
0.28 0.005 0 0 0 2.49977
0.285 0.005 0 0 0 2.59138
0.29 0.005 0 0 0 2.68515
0.295 0.005 0 0 0 2.78098
0.3 0.005 0 0 0 2.87873
0.305 0.005 0 0 0 2.9783
0.31 0.005 0 0 0 3.07953
0.315 0.005 0 0 0 3.18231
0.32 0.005 0 0 0 3.28648
0.325 0.005 0 0 0 3.3919
0.33 0.005 0 0 0 3.49842
0.335 0.005 0 0 0 3.60587
0.34 0.005 0 0 0 3.7141
0.345 0.005 0 0 0 3.82292
0.35 0.005 0 0 0 3.93217
0.355 0.005 0 0 0 4.04167
0.36 0.005 0 0 0 4.15123
0.365 0.005 0 0 0 4.26066
0.37 0.005 0 0 0 4.36977
0.375 0.005 0 0 0 4.47835
0.38 0.005 0 0 0 4.58622
0.385 0.005 0 0 0 4.69315
0.39 0.005 0 0 0 4.79895
0.395 0.005 0 0 0 4.9034
0.4 0.005 0 0 0 5.00629
0.405 0.005 0 0 0 5.10741
0.41 0.005 0 0 0 5.20654
0.415 0.005 0 0 0 5.30346
0.42 0.005 0 0 0 5.39797
0.425 0.005 0 0 0 5.48984
0.43 0.005 0 0 0 5.57886
0.435 0.005 0 0 0 5.66482
0.44 0.005 0 0 0 5.74751
0.445 0.005 0 0 0 5.82672
0.45 0.005 0 0 0 5.90224
0.455 0.005 0 0 0 5.97387
0.46 0.005 0 0 0 6.04142
0.465 0.005 0 0 0 6.1047
0.47 0.005 0 0 0 6.16352
0.475 0.005 0 0 0 6.2177
0.48 0.005 0 0 0 6.26706
0.485 0.005 0 0 0 6.31145
0.49 0.005 0 0 0 6.3507
0.495 0.005 0 0 0 6.38467
0.5 0.005 0 0 0 6.41321
0.505 0.005 0 0 0 6.43621
0.51 0.005 0 0 0 6.45353
0.515 0.005 0 0 0 6.46507
0.52 0.005 0 0 0 6.47074
0.525 0.005 0 0 0 6.47045
0.53 0.005 0 0 0 6.46412
0.535 0.005 0 0 0 6.45171
0.54 0.005 0 0 0 6.43317
0.545 0.005 0 0 0 6.40847
0.55 0.005 0 0 0 6.37759
0.555 0.005 0 0 0 6.34053
0.56 0.005 0 0 0 6.2973
0.565 0.005 0 0 0 6.24795
0.57 0.005 0 0 0 6.19251
0.575 0.005 0 0 0 6.13104
0.58 0.005 0 0 0 6.06364
0.585 0.005 0 0 0 5.99039
0.59 0.005 0 0 0 5.9114
0.595 0.005 0 0 0 5.82681
0.6 0.005 0 0 0 5.73675
0.605 0.005 0 0 0 5.6414
0.61 0.005 0 0 0 5.54093
0.615 0.005 0 0 0 5.43553
0.62 0.005 0 0 0 5.3254
0.625 0.005 0 0 0 5.21079
0.63 0.005 0 0 0 5.09191
0.635 0.005 0 0 0 4.96903
0.64 0.005 0 0 0 4.8424
0.645 0.005 0 0 0 4.71231
0.65 0.005 0 0 0 4.57903
0.655 0.005 0 0 0 4.44288
0.66 0.005 0 0 0 4.30415
0.665 0.005 0 0 0 4.16316
0.67 0.005 0 0 0 4.02024
0.675 0.005 0 0 0 3.8757
0.68 0.005 0 0 0 3.7299
0.685 0.005 0 0 0 3.58315
0.69 0.005 0 0 0 3.43579
0.695 0.005 0 0 0 3.28817
0.7 0.005 0 0 0 3.14063
0.705 0.005 0 0 0 2.99349
0.71 0.005 0 0 0 2.84708
0.715 0.005 0 0 0 2.70174
0.72 0.005 0 0 0 2.55778
0.725 0.005 0 0 0 2.41551
0.73 0.005 0 0 0 2.27524
0.735 0.005 0 0 0 2.13724
0.74 0.005 0 0 0 2.00181
0.745 0.005 0 0 0 1.8692
0.75 0.005 0 0 0 1.73968
0.755 0.005 0 0 0 1.61346
0.76 0.005 0 0 0 1.49078
0.765 0.005 0 0 0 1.37183
0.77 0.005 0 0 0 1.25681
0.775 0.005 0 0 0 1.14587
0.78 0.005 0 0 0 1.03917
0.785 0.005 0 0 0 0.93684
0.79 0.005 0 0 0 0.838984
0.795 0.005 0 0 0 0.745695
0.8 0.005 0 0 0 0.657044
0.805 0.005 0 0 0 0.573086
0.81 0.005 0 0 0 0.493853
0.815 0.005 0 0 0 0.41936
0.82 0.005 0 0 0 0.349607
0.825 0.005 0 0 0 0.284571
0.83 0.005 0 0 0 0.224219
0.835 0.005 0 0 0 0.168497
0.84 0.005 0 0 0 0.117338
0.845 0.005 0 0 0 0.0706632
0.85 0.005 0 0 0 0.0283778
0.855 0.005 0 0 0 -0.00962332
0.86 0.005 0 0 0 -0.0434562
0.865 0.005 0 0 0 -0.0732465
0.87 0.005 0 0 0 -0.0991289
0.875 0.005 0 0 0 -0.121245
0.88 0.005 0 0 0 -0.139744
0.885 0.005 0 0 0 -0.154779
0.89 0.005 0 0 0 -0.166511
0.895 0.005 0 0 0 -0.175101
0.9 0.005 0 0 0 -0.180718
0.905 0.005 0 0 0 -0.18353
0.91 0.005 0 0 0 -0.183713
0.915 0.005 0 0 0 -0.181441
0.92 0.005 0 0 0 -0.176896
0.925 0.005 0 0 0 -0.170264
0.93 0.005 0 0 0 -0.161735
0.935 0.005 0 0 0 -0.151509
0.94 0.005 0 0 0 -0.139797
0.945 0.005 0 0 0 -0.126824
0.95 0.005 0 0 0 -0.112833
0.955 0.005 0 0 0 -0.0980916
0.96 0.005 0 0 0 -0.0829011
0.965 0.005 0 0 0 -0.067602
0.97 0.005 0 0 0 -0.052587
0.975 0.005 0 0 0 -0.0383137
0.98 0.005 0 0 0 -0.0253176
0.985 0.005 0 0 0 -0.0142206
0.99 0.005 0 0 0 -0.00571748
0.995 0.005 0 0 0 -0.000489396
1 0.005 0 0 0 0.00110735
0 0.01 0 0 0.00110735 0
0.005 0.01 0 0 0 -326.272
0.01 0.01 -0.180048 0.0775933 -0.000921603 -44.3999
0.015 0.01 -0.184877 -0.0349913 -0.000775933 9.53345
0.02 0.01 -0.156413 -0.0351259 -0.000571691 19.119
0.025 0.01 -0.127584 -0.0245748 -0.000424673 18.9913
0.03 0.01 -0.104168 -0.0166683 -0.000325943 16.8231
0.035 0.01 -0.0859161 -0.0116876 -0.000257991 14.4883
0.04 0.01 -0.071636 -0.00856882 -0.000209067 12.4154
0.045 0.01 -0.0602887 -0.00653437 -0.000172303 10.6587
0.05 0.01 -0.0511229 -0.00513507 -0.000143723 9.18361
0.055 0.01 -0.0436172 -0.00412306 -0.000120952 7.94323
0.06 0.01 -0.0374068 -0.00335994 -0.000102493 6.89607
0.065 0.01 -0.0322301 -0.00276562 -8.73525e-05 6.00881
0.07 0.01 -0.0278934 -0.00229158 -7.48365e-05 5.25508
0.075 0.01 -0.0242488 -0.0019069 -6.44367e-05 4.6138
0.08 0.01 -0.0211804 -0.00159089 -5.57675e-05 4.06793
0.085 0.01 -0.0185951 -0.001329 -4.85278e-05 3.6034
0.09 0.01 -0.0164172 -0.00111061 -4.24775e-05 3.20848
0.095 0.01 -0.0145841 -0.000927638 -3.74217e-05 2.87331
0.1 0.01 -0.0130437 -0.000773805 -3.32011e-05 2.58952
0.105 0.01 -0.0117522 -0.000644096 -2.96837e-05 2.34995
0.11 0.01 -0.0106731 -0.000534448 -2.67601e-05 2.14853
0.115 0.01 -0.00977525 -0.000441533 -2.43392e-05 1.98003
0.12 0.01 -0.00903262 -0.000362604 -2.23447e-05 1.83998
0.125 0.01 -0.00842309 -0.000295373 -2.07131e-05 1.72457
0.13 0.01 -0.00792801 -0.000237937 -1.9391e-05 1.63052
0.135 0.01 -0.00753161 -0.0001887 -1.83337e-05 1.55504
0.14 0.01 -0.00722057 -0.000146328 -1.7504e-05 1.49576
0.145 0.01 -0.00698364 -0.000109703 -1.68704e-05 1.45062
0.15 0.01 -0.00681135 -7.78855e-05 -1.64069e-05 1.41791
0.155 0.01 -0.0066957 -5.00884e-05 -1.60916e-05 1.39614
0.16 0.01 -0.00662993 -2.5652e-05 -1.59061e-05 1.38407
0.165 0.01 -0.00660839 -4.02366e-06 -1.58351e-05 1.38062
0.17 0.01 -0.00662629 1.52593e-05 -1.58658e-05 1.38489
0.175 0.01 -0.0066796 3.25834e-05 -1.59876e-05 1.39612
0.18 0.01 -0.00676495 4.82709e-05 -1.61916e-05 1.41364
0.185 0.01 -0.00687947 6.25901e-05 -1.64703e-05 1.4369
0.19 0.01 -0.00702075 7.57637e-05 -1.68175e-05 1.46543
0.195 0.01 -0.00718676 8.79758e-05 -1.7228e-05 1.49882
0.2 0.01 -0.00737577 9.93781e-05 -1.76973e-05 1.53673
0.205 0.01 -0.00758631 0.000110095 -1.82217e-05 1.57886
0.21 0.01 -0.0078171 0.000120228 -1.87982e-05 1.62496
0.215 0.01 -0.00806706 0.00012986 -1.9424e-05 1.67478
0.22 0.01 -0.00833523 0.000139057 -2.00968e-05 1.72815
0.225 0.01 -0.00862078 0.000147871 -2.08146e-05 1.78487
0.23 0.01 -0.00892294 0.000156343 -2.15755e-05 1.8448
0.235 0.01 -0.00924103 0.000164505 -2.2378e-05 1.90778
0.24 0.01 -0.00957443 0.000172381 -2.32205e-05 1.97368
0.245 0.01 -0.00992255 0.000179989 -2.41018e-05 2.04237
0.25 0.01 -0.0102848 0.000187339 -2.50204e-05 2.11373
0.255 0.01 -0.0106607 0.000194438 -2.59752e-05 2.18765
0.26 0.01 -0.0110496 0.000201289 -2.69648e-05 2.26401
0.265 0.01 -0.0114511 0.000207892 -2.79881e-05 2.34269
0.27 0.01 -0.0118646 0.000214244 -2.90437e-05 2.42357
0.275 0.01 -0.0122895 0.000220339 -3.01305e-05 2.50656
0.28 0.01 -0.0127254 0.000226169 -3.12471e-05 2.59152
0.285 0.01 -0.0131716 0.000231726 -3.23922e-05 2.67833
0.29 0.01 -0.0136275 0.000237 -3.35644e-05 2.76689
0.295 0.01 -0.0140926 0.000241978 -3.47622e-05 2.85705
0.3 0.01 -0.0145663 0.000246649 -3.59842e-05 2.94869
0.305 0.01 -0.0150478 0.000251 -3.72287e-05 3.04168
0.31 0.01 -0.0155366 0.000255016 -3.84942e-05 3.13587
0.315 0.01 -0.0160319 0.000258685 -3.97789e-05 3.23114
0.32 0.01 -0.016533 0.000261991 -4.1081e-05 3.32733
0.325 0.01 -0.0170391 0.000264921 -4.23988e-05 3.42429
0.33 0.01 -0.0175495 0.000267461 -4.37302e-05 3.52187
0.335 0.01 -0.0180635 0.000269596 -4.50734e-05 3.61991
0.34 0.01 -0.0185801 0.000271312 -4.64262e-05 3.71825
0.345 0.01 -0.0190986 0.000272598 -4.77865e-05 3.81673
0.35 0.01 -0.0196181 0.000273438 -4.91522e-05 3.91518
0.355 0.01 -0.0201377 0.000273821 -5.05209e-05 4.01342
0.36 0.01 -0.0206565 0.000273736 -5.18904e-05 4.11129
0.365 0.01 -0.0211736 0.00027317 -5.32583e-05 4.2086
0.37 0.01 -0.021688 0.000272114 -5.46221e-05 4.30517
0.375 0.01 -0.0221989 0.000270558 -5.59794e-05 4.40083
0.38 0.01 -0.0227052 0.000268493 -5.73277e-05 4.49539
0.385 0.01 -0.023206 0.000265912 -5.86644e-05 4.58867
0.39 0.01 -0.0237002 0.000262808 -5.99869e-05 4.68048
0.395 0.01 -0.024187 0.000259175 -6.12925e-05 4.77063
0.4 0.01 -0.0246653 0.000255009 -6.25786e-05 4.85895
0.405 0.01 -0.0251341 0.000250307 -6.38426e-05 4.94524
0.41 0.01 -0.0255924 0.000245067 -6.50817e-05 5.02932
0.415 0.01 -0.0260392 0.000239287 -6.62933e-05 5.11101
0.42 0.01 -0.0264735 0.000232969 -6.74746e-05 5.19012
0.425 0.01 -0.0268944 0.000226114 -6.8623e-05 5.26648
0.43 0.01 -0.0273008 0.000218725 -6.97358e-05 5.33991
0.435 0.01 -0.0276917 0.000210806 -7.08103e-05 5.41023
0.44 0.01 -0.0280663 0.000202365 -7.18439e-05 5.47728
0.445 0.01 -0.0284236 0.000193407 -7.2834e-05 5.54089
0.45 0.01 -0.0287627 0.000183942 -7.3778e-05 5.6009
0.455 0.01 -0.0290826 0.00017398 -7.46734e-05 5.65714
0.46 0.01 -0.0293826 0.000163533 -7.55179e-05 5.70946
0.465 0.01 -0.0296617 0.000152615 -7.63088e-05 5.75773
0.47 0.01 -0.0299191 0.00014124 -7.7044e-05 5.8018
0.475 0.01 -0.0301541 0.000129424 -7.77213e-05 5.84153
0.48 0.01 -0.0303659 0.000117185 -7.83383e-05 5.87679
0.485 0.01 -0.0305538 0.000104544 -7.88932e-05 5.90748
0.49 0.01 -0.0307171 9.15199e-05 -7.93838e-05 5.93348
0.495 0.01 -0.0308551 7.81364e-05 -7.98084e-05 5.95467
0.5 0.01 -0.0309674 6.44171e-05 -8.01652e-05 5.97098
0.505 0.01 -0.0310534 5.03876e-05 -8.04526e-05 5.98231
0.51 0.01 -0.0311125 3.60748e-05 -8.06692e-05 5.98859
0.515 0.01 -0.0311444 2.15071e-05 -8.08134e-05 5.98976
0.52 0.01 -0.0311487 6.71438e-06 -8.08843e-05 5.98574
0.525 0.01 -0.0311249 -8.27225e-06 -8.08806e-05 5.97651
0.53 0.01 -0.031073 -2.34203e-05 -8.08016e-05 5.96203
0.535 0.01 -0.0309926 -3.8696e-05 -8.06465e-05 5.94226
0.54 0.01 -0.0308837 -5.40644e-05 -8.04147e-05 5.91721
0.545 0.01 -0.0307461 -6.94894e-05 -8.01059e-05 5.88687
0.55 0.01 -0.0305798 -8.4934e-05 -7.97199e-05 5.85125
0.555 0.01 -0.030385 -0.00010036 -7.92566e-05 5.81038
0.56 0.01 -0.0301616 -0.000115729 -7.87163e-05 5.76428
0.565 0.01 -0.02991 -0.000131 -7.80994e-05 5.71302
0.57 0.01 -0.0296304 -0.000146135 -7.74064e-05 5.65665
0.575 0.01 -0.0293232 -0.000161091 -7.66381e-05 5.59525
0.58 0.01 -0.0289886 -0.000175828 -7.57955e-05 5.52889
0.585 0.01 -0.0286274 -0.000190305 -7.48799e-05 5.45769
0.59 0.01 -0.0282399 -0.000204481 -7.38926e-05 5.38175
0.595 0.01 -0.0278268 -0.000218314 -7.28351e-05 5.30119
0.6 0.01 -0.0273889 -0.000231763 -7.17095e-05 5.21616
0.605 0.01 -0.0269269 -0.000244788 -7.05176e-05 5.1268
0.61 0.01 -0.0264416 -0.00025735 -6.92617e-05 5.03326
0.615 0.01 -0.0259341 -0.00026941 -6.79441e-05 4.93573
0.62 0.01 -0.0254051 -0.00028093 -6.65676e-05 4.83439
0.625 0.01 -0.0248559 -0.000291874 -6.51349e-05 4.72942
0.63 0.01 -0.0242874 -0.000302206 -6.36489e-05 4.62104
0.635 0.01 -0.0237009 -0.000311894 -6.21129e-05 4.50945
0.64 0.01 -0.0230975 -0.000320906 -6.05301e-05 4.39488
0.645 0.01 -0.0224787 -0.000329214 -5.89039e-05 4.27756
0.65 0.01 -0.0218455 -0.00033679 -5.7238e-05 4.15774
0.655 0.01 -0.0211996 -0.000343609 -5.5536e-05 4.03565
0.66 0.01 -0.0205421 -0.000349651 -5.38019e-05 3.91156
0.665 0.01 -0.0198746 -0.000354895 -5.20396e-05 3.78571
0.67 0.01 -0.0191986 -0.000359327 -5.0253e-05 3.65838
0.675 0.01 -0.0185154 -0.000362933 -4.84464e-05 3.52983
0.68 0.01 -0.0178268 -0.000365704 -4.66237e-05 3.40034
0.685 0.01 -0.017134 -0.000367633 -4.47894e-05 3.27017
0.69 0.01 -0.0164388 -0.000368718 -4.29474e-05 3.1396
0.695 0.01 -0.0157426 -0.00036896 -4.11022e-05 3.00891
0.7 0.01 -0.015047 -0.000368362 -3.92579e-05 2.87836
0.705 0.01 -0.0143534 -0.000366933 -3.74186e-05 2.74823
0.71 0.01 -0.0136633 -0.000364684 -3.55886e-05 2.61878
0.715 0.01 -0.0129783 -0.00036163 -3.37718e-05 2.49029
0.72 0.01 -0.0122998 -0.00035779 -3.19723e-05 2.363
0.725 0.01 -0.0116292 -0.000353185 -3.01939e-05 2.23717
0.73 0.01 -0.0109679 -0.000347841 -2.84405e-05 2.11305
0.735 0.01 -0.0103171 -0.000341786 -2.67156e-05 1.99087
0.74 0.01 -0.00967813 -0.000335051 -2.50226e-05 1.87086
0.745 0.01 -0.00905225 -0.000327671 -2.33651e-05 1.75324
0.75 0.01 -0.00844058 -0.000319682 -2.1746e-05 1.63821
0.755 0.01 -0.00784419 -0.000311123 -2.01683e-05 1.52598
0.76 0.01 -0.00726409 -0.000302036 -1.86347e-05 1.41673
0.765 0.01 -0.00670123 -0.000292464 -1.71479e-05 1.31062
0.77 0.01 -0.00615646 -0.000282451 -1.57101e-05 1.20782
0.775 0.01 -0.00563055 -0.000272045 -1.43234e-05 1.10847
0.78 0.01 -0.0051242 -0.000261291 -1.29897e-05 1.01269
0.785 0.01 -0.00463802 -0.000250237 -1.17105e-05 0.920606
0.79 0.01 -0.00417254 -0.000238933 -1.04873e-05 0.832314
0.795 0.01 -0.00372818 -0.000227424 -9.32119e-06 0.747898
0.8 0.01 -0.00330531 -0.000215761 -8.21306e-06 0.667427
0.805 0.01 -0.0029042 -0.00020399 -7.16357e-06 0.590955
0.81 0.01 -0.00252501 -0.000192157 -6.17316e-06 0.518521
0.815 0.01 -0.00216785 -0.000180308 -5.242e-06 0.450149
0.82 0.01 -0.00183274 -0.000168486 -4.37008e-06 0.38585
0.825 0.01 -0.00151962 -0.000156735 -3.55714e-06 0.325617
0.83 0.01 -0.00122834 -0.000145093 -2.80273e-06 0.269433
0.835 0.01 -0.0009587 -0.0001336 -2.1062e-06 0.217266
0.84 0.01 -0.000710419 -0.000122291 -1.46672e-06 0.169071
0.845 0.01 -0.000483154 -0.0001112 -8.83283e-07 0.124794
0.85 0.01 -0.0002765 -0.000100357 -3.54715e-07 0.0843647
0.855 0.01 -8.9996e-05 -8.97917e-05 1.20299e-07 0.0477063
0.86 0.01 7.68692e-05 -7.95283e-05 5.4321e-07 0.0147302
0.865 0.01 0.000224655 -6.95901e-05 9.1559e-07 -0.014661
0.87 0.01 0.000353964 -5.99974e-05 1.23912e-06 -0.0405731
0.875 0.01 0.000465434 -5.0768e-05 1.51557e-06 -0.0631193
0.88 0.01 0.000559741 -4.1917e-05 1.74681e-06 -0.0824202
0.885 0.01 0.000637586 -3.34578e-05 1.93475e-06 -0.0986025
0.89 0.01 0.000699701 -2.54015e-05 2.08139e-06 -0.111799
0.895 0.01 0.000746838 -1.77579e-05 2.18877e-06 -0.122146
0.9 0.01 0.000779772 -1.05357e-05 2.25898e-06 -0.129789
0.905 0.01 0.000799298 -3.74287e-06 2.29414e-06 -0.134873
0.91 0.01 0.00080623 2.61238e-06 2.29641e-06 -0.137552
0.915 0.01 0.000801402 8.52104e-06 2.26802e-06 -0.137983
0.92 0.01 0.000785671 1.39723e-05 2.21121e-06 -0.136328
0.925 0.01 0.000759923 1.89525e-05 2.1283e-06 -0.132757
0.93 0.01 0.000725074 2.34438e-05 2.02169e-06 -0.127446
0.935 0.01 0.000682083 2.74225e-05 1.89387e-06 -0.120581
0.94 0.01 0.000631964 3.08571e-05 1.74747e-06 -0.112357
0.945 0.01 0.000575795 3.37062e-05 1.5853e-06 -0.102985
0.95 0.01 0.000514742 3.59155e-05 1.41041e-06 -0.0926892
0.955 0.01 0.00045008 3.74145e-05 1.22615e-06 -0.0817153
0.96 0.01 0.000383217 3.81123e-05 1.03627e-06 -0.0703314
0.965 0.01 0.000315731 3.78929e-05 8.45026e-07 -0.0588325
0.97 0.01 0.000249398 3.66105e-05 6.57339e-07 -0.0475428
0.975 0.01 0.000186227 3.40869e-05 4.78922e-07 -0.0368157
0.98 0.01 0.000128483 3.01165e-05 3.1647e-07 -0.0270251
0.985 0.01 7.86637e-05 2.45002e-05 1.77757e-07 -0.0185419
0.99 0.01 3.93791e-05 1.7164e-05 7.14685e-08 -0.0116717
0.995 0.01 1.29801e-05 8.53104e-06 6.1174e-09 -0.00651835
1 0.01 6.12001e-07 6.1174e-07 -1.38419e-08 -0.00270421
0 0.015 0 0 -0.000489601 0
0.005 0.015 0 0 0 -255.961
0.01 0.015 -0.152865 0.184877 -0.00180048 -79.2524
0.015 0.015 -0.206266 -0.0236351 -0.00184877 -16.6379
0.02 0.015 -0.204625 -0.0572931 -0.00156413 2.30838
0.025 0.015 -0.184609 -0.052245 -0.00127584 7.91564
0.03 0.015 -0.161077 -0.0416681 -0.00104168 9.23695
0.035 0.015 -0.139018 -0.0325324 -0.000859161 9.10248
0.04 0.015 -0.119724 -0.0256275 -0.00071636 8.47927
0.045 0.015 -0.103236 -0.0205131 -0.000602887 7.72031
0.05 0.015 -0.0892384 -0.0166714 -0.000511229 6.95888
0.055 0.015 -0.0773608 -0.0137161 -0.000436172 6.24483
0.06 0.015 -0.0672687 -0.0113871 -0.000374068 5.59492
0.065 0.015 -0.0586809 -0.00951344 -0.000322301 5.01247
0.07 0.015 -0.0513655 -0.0079813 -0.000278934 4.49527
0.075 0.015 -0.0451314 -0.006713 -0.000242488 4.03894
0.08 0.015 -0.0398199 -0.00565367 -0.000211804 3.63836
0.085 0.015 -0.035298 -0.00476313 -0.000185951 3.28829
0.09 0.015 -0.0314535 -0.00401099 -0.000164172 2.98371
0.095 0.015 -0.0281909 -0.00337355 -0.000145841 2.71988
0.1 0.015 -0.0254292 -0.00283188 -0.000130437 2.49241
0.105 0.015 -0.0230988 -0.00237059 -0.000117522 2.29734
0.11 0.015 -0.0211404 -0.00197698 -0.000106731 2.13103
0.115 0.015 -0.0195031 -0.00164046 -9.77525e-05 1.99025
0.12 0.015 -0.0181434 -0.00135216 -9.03261e-05 1.8721
0.125 0.015 -0.017024 -0.0011046 -8.42309e-05 1.77398
0.13 0.015 -0.0161131 -0.000891478 -7.928e-05 1.69361
0.135 0.015 -0.0153835 -0.000707438 -7.5316e-05 1.62898
0.14 0.015 -0.014812 -0.000547959 -7.22056e-05 1.57831
0.145 0.015 -0.0143787 -0.000409209 -6.98364e-05 1.54006
0.15 0.015 -0.0140668 -0.000287942 -6.81135e-05 1.51286
0.155 0.015 -0.013862 -0.000181413 -6.69569e-05 1.49554
0.16 0.015 -0.0137521 -8.72989e-05 -6.62993e-05 1.48707
0.165 0.015 -0.0137267 -3.63989e-06 -6.60839e-05 1.48656
0.17 0.015 -0.0137771 7.12172e-05 -6.62629e-05 1.49323
0.175 0.015 -0.0138957 0.000138663 -6.6796e-05 1.50642
0.18 0.015 -0.0140762 0.000199867 -6.76495e-05 1.52554
0.185 0.015 -0.0143133 0.000255807 -6.87946e-05 1.55009
0.19 0.015 -0.0146024 0.000307299 -7.02075e-05 1.57964
0.195 0.015 -0.0149394 0.000355025 -7.18676e-05 1.61379
0.2 0.015 -0.0153211 0.000399547 -7.37577e-05 1.65223
0.205 0.015 -0.0157446 0.00044133 -7.5863e-05 1.69464
0.21 0.015 -0.0162073 0.000480756 -7.8171e-05 1.74078
0.215 0.015 -0.0167071 0.000518135 -8.06706e-05 1.79042
0.22 0.015 -0.0172421 0.000553719 -8.33523e-05 1.84334
0.225 0.015 -0.0178104 0.000587708 -8.62077e-05 1.89936
0.23 0.015 -0.0184106 0.00062026 -8.92294e-05 1.95831
0.235 0.015 -0.0190412 0.000651498 -9.24103e-05 2.02003
0.24 0.015 -0.019701 0.000681514 -9.57443e-05 2.08437
0.245 0.015 -0.0203885 0.000710376 -9.92255e-05 2.15119
0.25 0.015 -0.0211028 0.00073813 -0.000102848 2.22034
0.255 0.015 -0.0218425 0.000764805 -0.000106607 2.29171
0.26 0.015 -0.0226066 0.000790413 -0.000110496 2.36515
0.265 0.015 -0.0233939 0.000814956 -0.000114511 2.44054
0.27 0.015 -0.0242033 0.000838424 -0.000118646 2.51776
0.275 0.015 -0.0250337 0.000860798 -0.000122895 2.59667
0.28 0.015 -0.0258838 0.000882054 -0.000127254 2.67715
0.285 0.015 -0.0267526 0.000902159 -0.000131716 2.75906
0.29 0.015 -0.0276387 0.000921078 -0.000136275 2.84227
0.295 0.015 -0.0285409 0.000938769 -0.000140926 2.92665
0.3 0.015 -0.029458 0.00095519 -0.000145663 3.01206
0.305 0.015 -0.0303886 0.000970294 -0.000150478 3.09836
0.31 0.015 -0.0313314 0.000984034 -0.000155366 3.18542
0.315 0.015 -0.0322848 0.000996362 -0.000160319 3.27307
0.32 0.015 -0.0332476 0.00100723 -0.00016533 3.36118
0.325 0.015 -0.0342182 0.00101659 -0.000170391 3.4496
0.33 0.015 -0.035195 0.00102438 -0.000175495 3.53817
0.335 0.015 -0.0361765 0.00103057 -0.000180635 3.62674
0.34 0.015 -0.0371611 0.00103511 -0.000185801 3.71516
0.345 0.015 -0.0381471 0.00103796 -0.000190986 3.80325
0.35 0.015 -0.0391328 0.00103906 -0.000196181 3.89088
0.355 0.015 -0.0401166 0.00103838 -0.000201377 3.97786
0.36 0.015 -0.0410967 0.00103589 -0.000206565 4.06405
0.365 0.015 -0.0420713 0.00103154 -0.000211736 4.14928
0.37 0.015 -0.0430386 0.00102531 -0.00021688 4.23338
0.375 0.015 -0.0439969 0.00101717 -0.000221989 4.31619
0.38 0.015 -0.0449442 0.00100709 -0.000227052 4.39755
0.385 0.015 -0.0458788 0.000995054 -0.00023206 4.4773
0.39 0.015 -0.0467988 0.000981046 -0.000237003 4.55527
0.395 0.015 -0.0477024 0.000965051 -0.00024187 4.63132
0.4 0.015 -0.0485876 0.000947062 -0.000246653 4.70527
0.405 0.015 -0.0494526 0.000927075 -0.000251341 4.77697
0.41 0.015 -0.0502956 0.000905091 -0.000255924 4.84627
0.415 0.015 -0.0511148 0.000881114 -0.000260392 4.91302
0.42 0.015 -0.0519083 0.000855156 -0.000264735 4.97708
0.425 0.015 -0.0526743 0.000827231 -0.000268944 5.03829
0.43 0.015 -0.0534111 0.000797359 -0.000273008 5.09652
0.435 0.015 -0.0541169 0.000765566 -0.000276917 5.15163
0.44 0.015 -0.05479 0.000731881 -0.000280664 5.2035
0.445 0.015 -0.0554287 0.000696341 -0.000284236 5.252
0.45 0.015 -0.0560314 0.000658985 -0.000287627 5.297
0.455 0.015 -0.0565966 0.00061986 -0.000290826 5.33839
0.46 0.015 -0.0571226 0.000579016 -0.000293826 5.37606
0.465 0.015 -0.0576081 0.000536509 -0.000296617 5.40992
0.47 0.015 -0.0580515 0.000492401 -0.000299191 5.43985
0.475 0.015 -0.0584516 0.000446759 -0.000301541 5.46578
0.48 0.015 -0.0588071 0.000399655 -0.000303659 5.48762
0.485 0.015 -0.0591167 0.000351165 -0.000305538 5.50529
0.49 0.015 -0.0593794 0.000301373 -0.000307171 5.51873
0.495 0.015 -0.0595941 0.000250365 -0.000308552 5.52787
0.5 0.015 -0.0597599 0.000198235 -0.000309675 5.53266
0.505 0.015 -0.0598758 0.000145079 -0.000310534 5.53306
0.51 0.015 -0.0599411 9.09994e-05 -0.000311126 5.52904
0.515 0.015 -0.0599552 3.61037e-05 -0.000311444 5.52055
0.52 0.015 -0.0599175 -1.94968e-05 -0.000311487 5.5076
0.525 0.015 -0.0598274 -7.56864e-05 -0.00031125 5.49015
0.53 0.015 -0.0596847 -0.000132345 -0.00031073 5.46822
0.535 0.015 -0.0594891 -0.000189348 -0.000309926 5.4418
0.54 0.015 -0.0592404 -0.000246568 -0.000308837 5.41093
0.545 0.015 -0.0589387 -0.000303874 -0.000307461 5.37561
0.55 0.015 -0.058584 -0.000361132 -0.000305798 5.33589
0.555 0.015 -0.0581767 -0.000418203 -0.00030385 5.29181
0.56 0.015 -0.0577169 -0.000474949 -0.000301617 5.24343
0.565 0.015 -0.0572053 -0.000531228 -0.000299101 5.1908
0.57 0.015 -0.0566423 -0.000586895 -0.000296305 5.13401
0.575 0.015 -0.0560288 -0.000641807 -0.000293232 5.07312
0.58 0.015 -0.0553656 -0.000695819 -0.000289887 5.00823
0.585 0.015 -0.0546536 -0.000748784 -0.000286274 4.93945
0.59 0.015 -0.0538941 -0.000800557 -0.000282399 4.86687
0.595 0.015 -0.0530881 -0.000850994 -0.000278269 4.79061
0.6 0.015 -0.0522371 -0.000899953 -0.000273889 4.7108
0.605 0.015 -0.0513426 -0.000947292 -0.000269269 4.62758
0.61 0.015 -0.0504061 -0.000992873 -0.000264417 4.54108
0.615 0.015 -0.0494293 -0.00103656 -0.000259341 4.45146
0.62 0.015 -0.0484142 -0.00107823 -0.000254051 4.35886
0.625 0.015 -0.0473626 -0.00111775 -0.000248559 4.26346
0.63 0.015 -0.0462767 -0.001155 -0.000242874 4.16543
0.635 0.015 -0.0451584 -0.00118986 -0.000237009 4.06494
0.64 0.015 -0.0440101 -0.00122224 -0.000230976 3.96218
0.645 0.015 -0.0428342 -0.00125202 -0.000224787 3.85733
0.65 0.015 -0.0416329 -0.00127913 -0.000218456 3.75059
0.655 0.015 -0.0404088 -0.00130346 -0.000211996 3.64216
0.66 0.015 -0.0391645 -0.00132496 -0.000205421 3.53224
0.665 0.015 -0.0379025 -0.00134355 -0.000198746 3.42104
0.67 0.015 -0.0366255 -0.00135918 -0.000191986 3.30876
0.675 0.015 -0.0353363 -0.00137182 -0.000185155 3.19561
0.68 0.015 -0.0340374 -0.00138142 -0.000178268 3.08182
0.685 0.015 -0.0327317 -0.00138796 -0.000171341 2.96759
0.69 0.015 -0.031422 -0.00139145 -0.000164388 2.85314
0.695 0.015 -0.030111 -0.00139188 -0.000157426 2.73868
0.7 0.015 -0.0288014 -0.00138926 -0.00015047 2.62443
0.705 0.015 -0.027496 -0.00138363 -0.000143534 2.51059
0.71 0.015 -0.0261974 -0.00137503 -0.000136634 2.39738
0.715 0.015 -0.0249084 -0.00136352 -0.000129784 2.28501
0.72 0.015 -0.0236315 -0.00134914 -0.000122998 2.17368
0.725 0.015 -0.0223694 -0.00133199 -0.000116292 2.06358
0.73 0.015 -0.0211243 -0.00131216 -0.000109679 1.9549
0.735 0.015 -0.0198988 -0.00128973 -0.000103171 1.84785
0.74 0.015 -0.0186952 -0.00126483 -9.67814e-05 1.7426
0.745 0.015 -0.0175156 -0.00123756 -9.05226e-05 1.63932
0.75 0.015 -0.0163621 -0.00120807 -8.44058e-05 1.53818
0.755 0.015 -0.0152368 -0.00117649 -7.84419e-05 1.43934
0.76 0.015 -0.0141414 -0.00114296 -7.2641e-05 1.34295
0.765 0.015 -0.0130777 -0.00110764 -6.70124e-05 1.24916
0.77 0.015 -0.0120472 -0.00107069 -6.15646e-05 1.15808
0.775 0.015 -0.0110515 -0.00103226 -5.63055e-05 1.06985
0.78 0.015 -0.0100918 -0.000992531 -5.1242e-05 0.98458
0.785 0.015 -0.00916915 -0.000951667 -4.63802e-05 0.902361
0.79 0.015 -0.0082847 -0.00090984 -4.17254e-05 0.823287
0.795 0.015 -0.00743923 -0.000867223 -3.72818e-05 0.747435
0.8 0.015 -0.00663345 -0.000823989 -3.30531e-05 0.674872
0.805 0.015 -0.00586787 -0.000780306 -2.9042e-05 0.605652
0.81 0.015 -0.0051429 -0.000736344 -2.52501e-05 0.539819
0.815 0.015 -0.00445876 -0.000692267 -2.16785e-05 0.477404
0.82 0.015 -0.00381555 -0.000648234 -1.83274e-05 0.418428
0.825 0.015 -0.0032132 -0.000604401 -1.51961e-05 0.362899
0.83 0.015 -0.00265153 -0.000560915 -1.22834e-05 0.310815
0.835 0.015 -0.0021302 -0.000517918 -9.58698e-06 0.262164
0.84 0.015 -0.00164877 -0.000475544 -7.10417e-06 0.216921