Title=" Lid Driven Flow"
VARIABLES="X","Y","U","V","psi","xi"
ZONE T= "BOX", I= 201, J=201, F=POINT
0 0 0 0 0.000964181 0
0.005 0 0 0 0 0
0.01 0 0 0 0 0
0.015 0 0 0 0 161.889
0.02 0 0 0 0 176.132
0.025 0 0 0 0 155.639
0.03 0 0 0 0 133.286
0.035 0 0 0 0 115.806
0.04 0 0 0 0 102.988
0.045 0 0 0 0 93.4826
0.05 0 0 0 0 86.1757
0.055 0 0 0 0 80.3329
0.06 0 0 0 0 75.4953
0.065 0 0 0 0 71.3745
0.07 0 0 0 0 67.7838
0.075 0 0 0 0 64.5982
0.08 0 0 0 0 61.7308
0.085 0 0 0 0 59.12
0.09 0 0 0 0 56.7205
0.095 0 0 0 0 54.4989
0.1 0 0 0 0 52.4296
0.105 0 0 0 0 50.4928
0.11 0 0 0 0 48.6732
0.115 0 0 0 0 46.9582
0.12 0 0 0 0 45.3379
0.125 0 0 0 0 43.8039
0.13 0 0 0 0 42.3491
0.135 0 0 0 0 40.9674
0.14 0 0 0 0 39.6537
0.145 0 0 0 0 38.4032
0.15 0 0 0 0 37.2117
0.155 0 0 0 0 36.0754
0.16 0 0 0 0 34.9909
0.165 0 0 0 0 33.9548
0.17 0 0 0 0 32.9642
0.175 0 0 0 0 32.0162
0.18 0 0 0 0 31.1082
0.185 0 0 0 0 30.2377
0.19 0 0 0 0 29.4022
0.195 0 0 0 0 28.5996
0.2 0 0 0 0 27.8276
0.205 0 0 0 0 27.0844
0.21 0 0 0 0 26.3678
0.215 0 0 0 0 25.6762
0.22 0 0 0 0 25.0079
0.225 0 0 0 0 24.3611
0.23 0 0 0 0 23.7343
0.235 0 0 0 0 23.1261
0.24 0 0 0 0 22.5351
0.245 0 0 0 0 21.9601
0.25 0 0 0 0 21.3997
0.255 0 0 0 0 20.853
0.26 0 0 0 0 20.3188
0.265 0 0 0 0 19.7961
0.27 0 0 0 0 19.2841
0.275 0 0 0 0 18.7819
0.28 0 0 0 0 18.2887
0.285 0 0 0 0 17.8038
0.29 0 0 0 0 17.3266
0.295 0 0 0 0 16.8565
0.3 0 0 0 0 16.3929
0.305 0 0 0 0 15.9355
0.31 0 0 0 0 15.4837
0.315 0 0 0 0 15.0373
0.32 0 0 0 0 14.596
0.325 0 0 0 0 14.1594
0.33 0 0 0 0 13.7275
0.335 0 0 0 0 13.3
0.34 0 0 0 0 12.8769
0.345 0 0 0 0 12.458
0.35 0 0 0 0 12.0434
0.355 0 0 0 0 11.6331
0.36 0 0 0 0 11.227
0.365 0 0 0 0 10.8254
0.37 0 0 0 0 10.4283
0.375 0 0 0 0 10.0358
0.38 0 0 0 0 9.64814
0.385 0 0 0 0 9.26549
0.39 0 0 0 0 8.88803
0.395 0 0 0 0 8.51601
0.4 0 0 0 0 8.14965
0.405 0 0 0 0 7.7892
0.41 0 0 0 0 7.43491
0.415 0 0 0 0 7.08705
0.42 0 0 0 0 6.74586
0.425 0 0 0 0 6.41162
0.43 0 0 0 0 6.08457
0.435 0 0 0 0 5.76495
0.44 0 0 0 0 5.45302
0.445 0 0 0 0 5.14898
0.45 0 0 0 0 4.85306
0.455 0 0 0 0 4.56544
0.46 0 0 0 0 4.2863
0.465 0 0 0 0 4.0158
0.47 0 0 0 0 3.75406
0.475 0 0 0 0 3.50121
0.48 0 0 0 0 3.25734
0.485 0 0 0 0 3.02249
0.49 0 0 0 0 2.79672
0.495 0 0 0 0 2.58003
0.5 0 0 0 0 2.37241
0.505 0 0 0 0 2.17384
0.51 0 0 0 0 1.98424
0.515 0 0 0 0 1.80353
0.52 0 0 0 0 1.63162
0.525 0 0 0 0 1.46836
0.53 0 0 0 0 1.31362
0.535 0 0 0 0 1.16722
0.54 0 0 0 0 1.02899
0.545 0 0 0 0 0.898712
0.55 0 0 0 0 0.776187
0.555 0 0 0 0 0.661184
0.56 0 0 0 0 0.553467
0.565 0 0 0 0 0.452788
0.57 0 0 0 0 0.358896
0.575 0 0 0 0 0.27153
0.58 0 0 0 0 0.190426
0.585 0 0 0 0 0.115319
0.59 0 0 0 0 0.0459392
0.595 0 0 0 0 -0.0179802
0.6 0 0 0 0 -0.0767065
0.605 0 0 0 0 -0.130505
0.61 0 0 0 0 -0.179636
0.615 0 0 0 0 -0.224359
0.62 0 0 0 0 -0.264926
0.625 0 0 0 0 -0.301583
0.63 0 0 0 0 -0.33457
0.635 0 0 0 0 -0.364123
0.64 0 0 0 0 -0.390465
0.645 0 0 0 0 -0.413815
0.65 0 0 0 0 -0.434382
0.655 0 0 0 0 -0.452366
0.66 0 0 0 0 -0.467958
0.665 0 0 0 0 -0.48134
0.67 0 0 0 0 -0.492683
0.675 0 0 0 0 -0.502149
0.68 0 0 0 0 -0.50989
0.685 0 0 0 0 -0.516049
0.69 0 0 0 0 -0.520757
0.695 0 0 0 0 -0.524137
0.7 0 0 0 0 -0.526301
0.705 0 0 0 0 -0.527353
0.71 0 0 0 0 -0.527387
0.715 0 0 0 0 -0.526491
0.72 0 0 0 0 -0.52474
0.725 0 0 0 0 -0.522205
0.73 0 0 0 0 -0.518949
0.735 0 0 0 0 -0.515029
0.74 0 0 0 0 -0.510493
0.745 0 0 0 0 -0.505386
0.75 0 0 0 0 -0.499748
0.755 0 0 0 0 -0.493612
0.76 0 0 0 0 -0.487011
0.765 0 0 0 0 -0.479971
0.77 0 0 0 0 -0.472516
0.775 0 0 0 0 -0.464668
0.78 0 0 0 0 -0.456446
0.785 0 0 0 0 -0.447868
0.79 0 0 0 0 -0.438949
0.795 0 0 0 0 -0.429706
0.8 0 0 0 0 -0.420151
0.805 0 0 0 0 -0.410297
0.81 0 0 0 0 -0.400158
0.815 0 0 0 0 -0.389745
0.82 0 0 0 0 -0.379072
0.825 0 0 0 0 -0.368148
0.83 0 0 0 0 -0.356987
0.835 0 0 0 0 -0.345601
0.84 0 0 0 0 -0.334001
0.845 0 0 0 0 -0.3222
0.85 0 0 0 0 -0.310212
0.855 0 0 0 0 -0.298048
0.86 0 0 0 0 -0.285724
0.865 0 0 0 0 -0.273253
0.87 0 0 0 0 -0.260651
0.875 0 0 0 0 -0.247934
0.88 0 0 0 0 -0.235119
0.885 0 0 0 0 -0.222225
0.89 0 0 0 0 -0.209272
0.895 0 0 0 0 -0.196282
0.9 0 0 0 0 -0.183279
0.905 0 0 0 0 -0.17029
0.91 0 0 0 0 -0.157344
0.915 0 0 0 0 -0.144474
0.92 0 0 0 0 -0.131716
0.925 0 0 0 0 -0.119111
0.93 0 0 0 0 -0.106706
0.935 0 0 0 0 -0.0945518
0.94 0 0 0 0 -0.0827074
0.945 0 0 0 0 -0.0712384
0.95 0 0 0 0 -0.0602192
0.955 0 0 0 0 -0.0497338
0.96 0 0 0 0 -0.0398766
0.965 0 0 0 0 -0.0307541
0.97 0 0 0 0 -0.022485
0.975 0 0 0 0 -0.0152007
0.98 0 0 0 0 -0.00904394
0.985 0 0 0 0 -0.0041631
0.99 0 0 0 0 -0.000698738
0.995 0 0 0 0 0.00124958
1 0 0 0 0 0.00170045
0 0.005 0 0 0 0
0.005 0.005 0 0 0 0
0.01 0.005 0 0 0 73.7255
0.015 0.005 0 0 0 61.9945
0.02 0.005 0 0 0 45.5489
0.025 0.005 0 0 0 33.7247
0.03 0.005 0 0 0 25.839
0.035 0.005 0 0 0 20.4884
0.04 0.005 0 0 0 16.7138
0.045 0.005 0 0 0 13.9441
0.05 0.005 0 0 0 11.8424
0.055 0.005 0 0 0 10.2041
0.06 0.005 0 0 0 8.89954
0.065 0.005 0 0 0 7.84318
0.07 0.005 0 0 0 6.97612
0.075 0.005 0 0 0 6.25657
0.08 0.005 0 0 0 5.65396
0.085 0.005 0 0 0 5.14543
0.09 0.005 0 0 0 4.71353
0.095 0.005 0 0 0 4.34473
0.1 0.005 0 0 0 4.02837
0.105 0.005 0 0 0 3.75595
0.11 0.005 0 0 0 3.52065
0.115 0.005 0 0 0 3.3169
0.12 0.005 0 0 0 3.14015
0.125 0.005 0 0 0 2.98663
0.13 0.005 0 0 0 2.85321
0.135 0.005 0 0 0 2.73728
0.14 0.005 0 0 0 2.63662
0.145 0.005 0 0 0 2.54936
0.15 0.005 0 0 0 2.4739
0.155 0.005 0 0 0 2.40889
0.16 0.005 0 0 0 2.35315
0.165 0.005 0 0 0 2.30566
0.17 0.005 0 0 0 2.26555
0.175 0.005 0 0 0 2.23204
0.18 0.005 0 0 0 2.20447
0.185 0.005 0 0 0 2.18224
0.19 0.005 0 0 0 2.16483
0.195 0.005 0 0 0 2.15177
0.2 0.005 0 0 0 2.14265
0.205 0.005 0 0 0 2.13711
0.21 0.005 0 0 0 2.13481
0.215 0.005 0 0 0 2.13544
0.22 0.005 0 0 0 2.13874
0.225 0.005 0 0 0 2.14446
0.23 0.005 0 0 0 2.15238
0.235 0.005 0 0 0 2.16227
0.24 0.005 0 0 0 2.17396
0.245 0.005 0 0 0 2.18725
0.25 0.005 0 0 0 2.20199
0.255 0.005 0 0 0 2.21802
0.26 0.005 0 0 0 2.2352
0.265 0.005 0 0 0 2.25337
0.27 0.005 0 0 0 2.27242
0.275 0.005 0 0 0 2.29221
0.28 0.005 0 0 0 2.31263
0.285 0.005 0 0 0 2.33356
0.29 0.005 0 0 0 2.3549
0.295 0.005 0 0 0 2.37653
0.3 0.005 0 0 0 2.39836
0.305 0.005 0 0 0 2.42028
0.31 0.005 0 0 0 2.4422
0.315 0.005 0 0 0 2.46404
0.32 0.005 0 0 0 2.48569
0.325 0.005 0 0 0 2.50707
0.33 0.005 0 0 0 2.5281
0.335 0.005 0 0 0 2.54869
0.34 0.005 0 0 0 2.56877
0.345 0.005 0 0 0 2.58826
0.35 0.005 0 0 0 2.60709
0.355 0.005 0 0 0 2.62518
0.36 0.005 0 0 0 2.64246
0.365 0.005 0 0 0 2.65887
0.37 0.005 0 0 0 2.67434
0.375 0.005 0 0 0 2.68882
0.38 0.005 0 0 0 2.70224
0.385 0.005 0 0 0 2.71454
0.39 0.005 0 0 0 2.72569
0.395 0.005 0 0 0 2.73562
0.4 0.005 0 0 0 2.7443
0.405 0.005 0 0 0 2.75168
0.41 0.005 0 0 0 2.75772
0.415 0.005 0 0 0 2.76238
0.42 0.005 0 0 0 2.76564
0.425 0.005 0 0 0 2.76746
0.43 0.005 0 0 0 2.76782
0.435 0.005 0 0 0 2.7667
0.44 0.005 0 0 0 2.76408
0.445 0.005 0 0 0 2.75995
0.45 0.005 0 0 0 2.7543
0.455 0.005 0 0 0 2.74712
0.46 0.005 0 0 0 2.7384
0.465 0.005 0 0 0 2.72816
0.47 0.005 0 0 0 2.71639
0.475 0.005 0 0 0 2.7031
0.48 0.005 0 0 0 2.68831
0.485 0.005 0 0 0 2.67202
0.49 0.005 0 0 0 2.65427
0.495 0.005 0 0 0 2.63506
0.5 0.005 0 0 0 2.61443
0.505 0.005 0 0 0 2.59241
0.51 0.005 0 0 0 2.56902
0.515 0.005 0 0 0 2.5443
0.52 0.005 0 0 0 2.51828
0.525 0.005 0 0 0 2.49102
0.53 0.005 0 0 0 2.46253
0.535 0.005 0 0 0 2.43288
0.54 0.005 0 0 0 2.40211
0.545 0.005 0 0 0 2.37026
0.55 0.005 0 0 0 2.33738
0.555 0.005 0 0 0 2.30353
0.56 0.005 0 0 0 2.26875
0.565 0.005 0 0 0 2.23311
0.57 0.005 0 0 0 2.19664
0.575 0.005 0 0 0 2.15941
0.58 0.005 0 0 0 2.12147
0.585 0.005 0 0 0 2.08289
0.59 0.005 0 0 0 2.0437
0.595 0.005 0 0 0 2.00398
0.6 0.005 0 0 0 1.96376
0.605 0.005 0 0 0 1.92312
0.61 0.005 0 0 0 1.88211
0.615 0.005 0 0 0 1.84077
0.62 0.005 0 0 0 1.79916
0.625 0.005 0 0 0 1.75734
0.63 0.005 0 0 0 1.71535
0.635 0.005 0 0 0 1.67325
0.64 0.005 0 0 0 1.63109
0.645 0.005 0 0 0 1.5889
0.65 0.005 0 0 0 1.54675
0.655 0.005 0 0 0 1.50467
0.66 0.005 0 0 0 1.46271
0.665 0.005 0 0 0 1.42092
0.67 0.005 0 0 0 1.37932
0.675 0.005 0 0 0 1.33796
0.68 0.005 0 0 0 1.29687
0.685 0.005 0 0 0 1.2561
0.69 0.005 0 0 0 1.21568
0.695 0.005 0 0 0 1.17563
0.7 0.005 0 0 0 1.13599
0.705 0.005 0 0 0 1.09679
0.71 0.005 0 0 0 1.05805
0.715 0.005 0 0 0 1.0198
0.72 0.005 0 0 0 0.982062
0.725 0.005 0 0 0 0.944863
0.73 0.005 0 0 0 0.908221
0.735 0.005 0 0 0 0.872156
0.74 0.005 0 0 0 0.836685
0.745 0.005 0 0 0 0.801827
0.75 0.005 0 0 0 0.767597
0.755 0.005 0 0 0 0.734009
0.76 0.005 0 0 0 0.701076
0.765 0.005 0 0 0 0.668811
0.77 0.005 0 0 0 0.637226
0.775 0.005 0 0 0 0.606329
0.78 0.005 0 0 0 0.576132
0.785 0.005 0 0 0 0.546642
0.79 0.005 0 0 0 0.517867
0.795 0.005 0 0 0 0.489815
0.8 0.005 0 0 0 0.462491
0.805 0.005 0 0 0 0.435902
0.81 0.005 0 0 0 0.410053
0.815 0.005 0 0 0 0.384949
0.82 0.005 0 0 0 0.360594
0.825 0.005 0 0 0 0.336992
0.83 0.005 0 0 0 0.314147
0.835 0.005 0 0 0 0.292062
0.84 0.005 0 0 0 0.270741
0.845 0.005 0 0 0 0.250186
0.85 0.005 0 0 0 0.230399
0.855 0.005 0 0 0 0.211384
0.86 0.005 0 0 0 0.193143
0.865 0.005 0 0 0 0.175679
0.87 0.005 0 0 0 0.158993
0.875 0.005 0 0 0 0.143089
0.88 0.005 0 0 0 0.127968
0.885 0.005 0 0 0 0.113634
0.89 0.005 0 0 0 0.100089
0.895 0.005 0 0 0 0.0873365
0.9 0.005 0 0 0 0.0753784
0.905 0.005 0 0 0 0.0642183
0.91 0.005 0 0 0 0.0538595
0.915 0.005 0 0 0 0.0443055
0.92 0.005 0 0 0 0.0355597
0.925 0.005 0 0 0 0.0276257
0.93 0.005 0 0 0 0.0205069
0.935 0.005 0 0 0 0.0142062
0.94 0.005 0 0 0 0.00872614
0.945 0.005 0 0 0 0.00406774
0.95 0.005 0 0 0 0.000230259
0.955 0.005 0 0 0 -0.00279016
0.96 0.005 0 0 0 -0.0050021
0.965 0.005 0 0 0 -0.00642146
0.97 0.005 0 0 0 -0.00707532
0.975 0.005 0 0 0 -0.0070081
0.98 0.005 0 0 0 -0.0062913
0.985 0.005 0 0 0 -0.00503912
0.99 0.005 0 0 0 -0.00343343
0.995 0.005 0 0 0 -0.00176017
1 0.005 0 0 0 -0.0004451
0 0.01 0 0 -0.0004451 0
0.005 0.01 0 0 0 -326.275
0.01 0.01 -0.179965 0.0774932 -0.000921569 -44.4678
0.015 0.01 -0.184525 -0.0352208 -0.000774932 9.4581
0.02 0.01 -0.155763 -0.0353373 -0.000569361 19.0671
0.025 0.01 -0.126807 -0.0246373 -0.000421558 18.9673
0.03 0.01 -0.103527 -0.0165454 -0.000322988 16.839
0.035 0.01 -0.0856644 -0.0114066 -0.000256105 14.5654
0.04 0.01 -0.0719696 -0.00818034 -0.000208922 12.5765
0.045 0.01 -0.0613294 -0.00608924 -0.000174301 10.9216
0.05 0.01 -0.052925 -0.00467503 -0.00014803 9.55928
0.055 0.01 -0.0461805 -0.00367856 -0.000127551 8.43504
0.06 0.01 -0.0406919 -0.00295111 -0.000111244 7.50129
0.065 0.01 -0.0361714 -0.00240427 -9.80396e-05 6.72005
0.07 0.01 -0.0324103 -0.00198325 -8.72014e-05 6.06178
0.075 0.01 -0.0292541 -0.00165269 -7.82069e-05 5.50356
0.08 0.01 -0.026586 -0.00138891 -7.06743e-05 5.0275
0.085 0.01 -0.0243165 -0.00117552 -6.43177e-05 4.61949
0.09 0.01 -0.0223757 -0.00100086 -5.8919e-05 4.2683
0.095 0.01 -0.0207085 -0.000856439 -5.43089e-05 3.96491
0.1 0.01 -0.0192709 -0.000735955 -5.03544e-05 3.702
0.105 0.01 -0.0180274 -0.00063463 -4.69492e-05 3.47356
0.11 0.01 -0.0169489 -0.000548797 -4.40079e-05 3.27468
0.115 0.01 -0.0160116 -0.000475608 -4.14611e-05 3.10125
0.12 0.01 -0.0151959 -0.000412818 -3.92517e-05 2.94986
0.125 0.01 -0.0144855 -0.000358648 -3.73327e-05 2.81764
0.13 0.01 -0.0138665 -0.000311669 -3.5665e-05 2.70215
0.135 0.01 -0.0133275 -0.000270729 -3.42158e-05 2.60136
0.14 0.01 -0.0128585 -0.000234888 -3.29575e-05 2.5135
0.145 0.01 -0.0124513 -0.000203378 -3.18668e-05 2.43706
0.15 0.01 -0.0120986 -0.000175566 -3.09236e-05 2.37076
0.155 0.01 -0.0117943 -0.000150926 -3.0111e-05 2.31347
0.16 0.01 -0.0115331 -0.000129021 -2.94142e-05 2.26423
0.165 0.01 -0.0113104 -0.000109485 -2.88206e-05 2.22217
0.17 0.01 -0.011122 -9.20092e-05 -2.83192e-05 2.18658
0.175 0.01 -0.0109646 -7.6335e-05 -2.79004e-05 2.15678
0.18 0.01 -0.010835 -6.22415e-05 -2.75557e-05 2.13221
0.185 0.01 -0.0107305 -4.95414e-05 -2.72779e-05 2.11236
0.19 0.01 -0.0106485 -3.80747e-05 -2.70602e-05 2.09677
0.195 0.01 -0.0105871 -2.77046e-05 -2.6897e-05 2.08505
0.2 0.01 -0.0105442 -1.83136e-05 -2.67831e-05 2.07682
0.205 0.01 -0.0105181 -9.80072e-06 -2.67138e-05 2.07175
0.21 0.01 -0.0105073 -2.07867e-06 -2.6685e-05 2.06957
0.215 0.01 -0.0105102 4.92781e-06 -2.66929e-05 2.06999
0.22 0.01 -0.0105258 1.1284e-05 -2.67342e-05 2.07278
0.225 0.01 -0.0105527 1.70463e-05 -2.68057e-05 2.0777
0.23 0.01 -0.0105899 2.22641e-05 -2.69047e-05 2.08456
0.235 0.01 -0.0106364 2.69799e-05 -2.70284e-05 2.09317
0.24 0.01 -0.0106912 3.12311e-05 -2.71744e-05 2.10335
0.245 0.01 -0.0107537 3.50503e-05 -2.73407e-05 2.11493
0.25 0.01 -0.0108228 3.84657e-05 -2.75249e-05 2.12777
0.255 0.01 -0.0108979 4.15024e-05 -2.77253e-05 2.14173
0.26 0.01 -0.0109784 4.41822e-05 -2.794e-05 2.15665
0.265 0.01 -0.0110634 4.65243e-05 -2.81672e-05 2.17243
0.27 0.01 -0.0111525 4.85457e-05 -2.84053e-05 2.18894
0.275 0.01 -0.0112449 5.02615e-05 -2.86527e-05 2.20606
0.28 0.01 -0.0113402 5.1685e-05 -2.89079e-05 2.22369
0.285 0.01 -0.0114377 5.28282e-05 -2.91696e-05 2.24172
0.29 0.01 -0.011537 5.37019e-05 -2.94363e-05 2.26005
0.295 0.01 -0.0116375 5.43158e-05 -2.97067e-05 2.27858
0.3 0.01 -0.0117388 5.46788e-05 -2.99795e-05 2.29722
0.305 0.01 -0.0118404 5.47992e-05 -3.02536e-05 2.31589
0.31 0.01 -0.0119419 5.46846e-05 -3.05277e-05 2.33449
0.315 0.01 -0.0120427 5.43422e-05 -3.08006e-05 2.35294
0.32 0.01 -0.0121425 5.37789e-05 -3.10712e-05 2.37116
0.325 0.01 -0.0122408 5.30012e-05 -3.13385e-05 2.38908
0.33 0.01 -0.0123373 5.20158e-05 -3.16014e-05 2.40661
0.335 0.01 -0.0124316 5.08287e-05 -3.18588e-05 2.42369
0.34 0.01 -0.0125233 4.94465e-05 -3.21099e-05 2.44025
0.345 0.01 -0.0126121 4.78752e-05 -3.23535e-05 2.45622
0.35 0.01 -0.0126975 4.61214e-05 -3.25888e-05 2.47153
0.355 0.01 -0.0127793 4.41915e-05 -3.28149e-05 2.48612
0.36 0.01 -0.0128571 4.2092e-05 -3.3031e-05 2.49994
0.365 0.01 -0.0129307 3.98297e-05 -3.32361e-05 2.51292
0.37 0.01 -0.0129996 3.74114e-05 -3.34295e-05 2.52501
0.375 0.01 -0.0130638 3.48443e-05 -3.36104e-05 2.53616
0.38 0.01 -0.0131228 3.21357e-05 -3.37782e-05 2.54633
0.385 0.01 -0.0131765 2.92931e-05 -3.39321e-05 2.55546
0.39 0.01 -0.0132246 2.63242e-05 -3.40714e-05 2.56351
0.395 0.01 -0.0132668 2.32369e-05 -3.41956e-05 2.57045
0.4 0.01 -0.013303 2.00395e-05 -3.43041e-05 2.57623
0.405 0.01 -0.013333 1.67402e-05 -3.43963e-05 2.58082
0.41 0.01 -0.0133565 1.33476e-05 -3.44718e-05 2.5842
0.415 0.01 -0.0133736 9.87036e-06 -3.45301e-05 2.58633
0.42 0.01 -0.0133839 6.31739e-06 -3.45708e-05 2.58718
0.425 0.01 -0.0133874 2.69768e-06 -3.45936e-05 2.58675
0.43 0.01 -0.0133839 -9.79648e-07 -3.45981e-05 2.585
0.435 0.01 -0.0133735 -4.70538e-06 -3.45841e-05 2.58193
0.44 0.01 -0.0133559 -8.47024e-06 -3.45514e-05 2.57752
0.445 0.01 -0.0133312 -1.22649e-05 -3.44998e-05 2.57176
0.45 0.01 -0.0132993 -1.608e-05 -3.44291e-05 2.56465
0.455 0.01 -0.0132602 -1.99063e-05 -3.43393e-05 2.5562
0.46 0.01 -0.0132139 -2.37345e-05 -3.42304e-05 2.54639
0.465 0.01 -0.0131604 -2.75553e-05 -3.41023e-05 2.53523
0.47 0.01 -0.0130997 -3.13597e-05 -3.39552e-05 2.52273
0.475 0.01 -0.0130319 -3.51388e-05 -3.37891e-05 2.50891
0.48 0.01 -0.0129571 -3.88837e-05 -3.36042e-05 2.49377
0.485 0.01 -0.0128752 -4.25859e-05 -3.34006e-05 2.47732
0.49 0.01 -0.0127865 -4.6237e-05 -3.31787e-05 2.4596
0.495 0.01 -0.012691 -4.98289e-05 -3.29386e-05 2.44063
0.5 0.01 -0.0125889 -5.33538e-05 -3.26808e-05 2.42041
0.505 0.01 -0.0124803 -5.68042e-05 -3.24055e-05 2.399
0.51 0.01 -0.0123652 -6.01729e-05 -3.21131e-05 2.3764
0.515 0.01 -0.012244 -6.34531e-05 -3.18041e-05 2.35266
0.52 0.01 -0.0121168 -6.66383e-05 -3.14789e-05 2.3278
0.525 0.01 -0.0119838 -6.97224e-05 -3.11381e-05 2.30187
0.53 0.01 -0.0118451 -7.27e-05 -3.0782e-05 2.27491
0.535 0.01 -0.011701 -7.55656e-05 -3.04114e-05 2.24694
0.54 0.01 -0.0115517 -7.83147e-05 -3.00267e-05 2.21801
0.545 0.01 -0.0113974 -8.09427e-05 -2.96286e-05 2.18817
0.55 0.01 -0.0112383 -8.3446e-05 -2.92176e-05 2.15745
0.555 0.01 -0.0110748 -8.58211e-05 -2.87945e-05 2.12591
0.56 0.01 -0.010907 -8.8065e-05 -2.83597e-05 2.09358
0.565 0.01 -0.0107351 -9.01752e-05 -2.79141e-05 2.06052
0.57 0.01 -0.0105595 -9.21499e-05 -2.74583e-05 2.02676
0.575 0.01 -0.0103804 -9.39873e-05 -2.69929e-05 1.99237
0.58 0.01 -0.010198 -9.56865e-05 -2.65187e-05 1.95738
0.585 0.01 -0.0100126 -9.72468e-05 -2.60364e-05 1.92184
0.59 0.01 -0.00982448 -9.86679e-05 -2.55466e-05 1.88581
0.595 0.01 -0.00963388 -9.99501e-05 -2.505e-05 1.84932
0.6 0.01 -0.00944106 -0.000101094 -2.45473e-05 1.81243
0.605 0.01 -0.00924628 -0.0001021 -2.40393e-05 1.77519
0.61 0.01 -0.0090498 -0.000102971 -2.35266e-05 1.73764
0.615 0.01 -0.00885185 -0.000103707 -2.30098e-05 1.69983
0.62 0.01 -0.00865269 -0.000104311 -2.24897e-05 1.6618
0.625 0.01 -0.00845257 -0.000104785 -2.1967e-05 1.6236
0.63 0.01 -0.00825172 -0.000105132 -2.14421e-05 1.58527
0.635 0.01 -0.00805038 -0.000105354 -2.09159e-05 1.54686
0.64 0.01 -0.00784877 -0.000105455 -2.03888e-05 1.5084
0.645 0.01 -0.00764712 -0.000105439 -1.98615e-05 1.46995
0.65 0.01 -0.00744564 -0.000105307 -1.93346e-05 1.43153
0.655 0.01 -0.00724454 -0.000105066 -1.88086e-05 1.39319
0.66 0.01 -0.00704403 -0.000104717 -1.82841e-05 1.35497
0.665 0.01 -0.00684429 -0.000104265 -1.77616e-05 1.31689
0.67 0.01 -0.00664552 -0.000103714 -1.72416e-05 1.27901
0.675 0.01 -0.0064479 -0.000103069 -1.67246e-05 1.24133
0.68 0.01 -0.00625159 -0.000102333 -1.62111e-05 1.20391
0.685 0.01 -0.00605677 -0.00010151 -1.57014e-05 1.16677
0.69 0.01 -0.00586359 -0.000100606 -1.51961e-05 1.12994
0.695 0.01 -0.0056722 -9.96227e-05 -1.46955e-05 1.09345
0.7 0.01 -0.00548274 -9.85657e-05 -1.42e-05 1.05732
0.705 0.01 -0.00529534 -9.74388e-05 -1.37099e-05 1.02158
0.71 0.01 -0.00511014 -9.6246e-05 -1.32257e-05 0.98625
0.715 0.01 -0.00492725 -9.49911e-05 -1.27476e-05 0.951357
0.72 0.01 -0.00474679 -9.36781e-05 -1.22759e-05 0.916919
0.725 0.01 -0.00456886 -9.23107e-05 -1.18109e-05 0.882956
0.73 0.01 -0.00439356 -9.08925e-05 -1.13528e-05 0.849487
0.735 0.01 -0.00422098 -8.94269e-05 -1.0902e-05 0.81653
0.74 0.01 -0.00405121 -8.79174e-05 -1.04586e-05 0.7841
0.745 0.01 -0.00388432 -8.6367e-05 -1.00229e-05 0.752213
0.75 0.01 -0.0037204 -8.4779e-05 -9.59501e-06 0.720883
0.755 0.01 -0.00355951 -8.31563e-05 -9.17516e-06 0.690122
0.76 0.01 -0.00340172 -8.15015e-05 -8.76349e-06 0.659944
0.765 0.01 -0.00324708 -7.98173e-05 -8.36018e-06 0.630359
0.77 0.01 -0.00309565 -7.81062e-05 -7.96535e-06 0.601377
0.775 0.01 -0.00294747 -7.63704e-05 -7.57915e-06 0.573009
0.78 0.01 -0.0028026 -7.46122e-05 -7.20168e-06 0.545263
0.785 0.01 -0.00266108 -7.28335e-05 -6.83305e-06 0.518147
0.79 0.01 -0.00252294 -7.10362e-05 -6.47336e-06 0.491669
0.795 0.01 -0.00238822 -6.92219e-05 -6.1227e-06 0.465836
0.8 0.01 -0.00225695 -6.73923e-05 -5.78116e-06 0.440654
0.805 0.01 -0.00212915 -6.55488e-05 -5.44879e-06 0.416129
0.81 0.01 -0.00200487 -6.36925e-05 -5.12568e-06 0.392267
0.815 0.01 -0.00188412 -6.18248e-05 -4.81187e-06 0.369073
0.82 0.01 -0.00176692 -5.99467e-05 -4.50743e-06 0.34655
0.825 0.01 -0.0016533 -5.8059e-05 -4.21241e-06 0.324705
0.83 0.01 -0.00154327 -5.61625e-05 -3.92684e-06 0.30354
0.835 0.01 -0.00143685 -5.4258e-05 -3.65078e-06 0.283059
0.84 0.01 -0.00133406 -5.2346e-05 -3.38426e-06 0.263267
0.845 0.01 -0.00123492 -5.0427e-05 -3.12732e-06 0.244165
0.85 0.01 -0.00113943 -4.85014e-05 -2.87998e-06 0.225759
0.855 0.01 -0.00104762 -4.65694e-05 -2.6423e-06 0.20805
0.86 0.01 -0.000959491 -4.46312e-05 -2.41428e-06 0.191042
0.865 0.01 -0.000875066 -4.26869e-05 -2.19598e-06 0.174738
0.87 0.01 -0.000794354 -4.07366e-05 -1.98741e-06 0.15914
0.875 0.01 -0.000717368 -3.87801e-05 -1.7886e-06 0.144251
0.88 0.01 -0.000644121 -3.68172e-05 -1.5996e-06 0.130074
0.885 0.01 -0.000574628 -3.48478e-05 -1.42042e-06 0.116612
0.89 0.01 -0.000508901 -3.28715e-05 -1.25111e-06 0.103867
0.895 0.01 -0.000446954 -3.0888e-05 -1.0917e-06 0.0918432
0.9 0.01 -0.000388802 -2.88968e-05 -9.42221e-07 0.0805418
0.905 0.01 -0.000334458 -2.68977e-05 -8.0272e-07 0.069966
0.91 0.01 -0.000283938 -2.48902e-05 -6.73236e-07 0.0601183
0.915 0.01 -0.000237255 -2.2874e-05 -5.53811e-07 0.0510008
0.92 0.01 -0.000194423 -2.0849e-05 -4.4449e-07 0.0426157
0.925 0.01 -0.000155455 -1.88153e-05 -3.45315e-07 0.0349643
0.93 0.01 -0.000120363 -1.67737e-05 -2.5633e-07 0.0280476
0.935 0.01 -8.9152e-05 -1.47253e-05 -1.77573e-07 0.0218651
0.94 0.01 -6.18255e-05 -1.26726e-05 -1.09072e-07 0.0164151
0.945 0.01 -3.83771e-05 -1.06194e-05 -5.08425e-08 0.0116938
0.95 0.01 -1.87889e-05 -8.57194e-06 -2.87453e-09 0.007694
0.955 0.01 -3.02521e-06 -6.54008e-06 3.48801e-08 0.0044046
0.96 0.01 8.97559e-06 -4.53881e-06 6.25288e-08 0.00180825
0.965 0.01 1.73127e-05 -2.59127e-06 8.02702e-08 -0.000120831
0.97 0.01 2.21404e-05 -7.33113e-07 8.84429e-08 -0.00142028
0.975 0.01 2.3693e-05 9.80169e-07 8.76023e-08 -0.00214428
0.98 0.01 2.23216e-05 2.46133e-06 7.86418e-08 -0.00236969
0.985 0.01 1.85478e-05 3.57238e-06 6.29892e-08 -0.00220327
0.99 0.01 1.31362e-05 4.0987e-06 4.2918e-08 -0.00178728
0.995 0.01 7.18496e-06 3.73542e-06 2.20021e-08 -0.00129293
1 0.01 2.19624e-06 2.20021e-06 5.56369e-09 -0.000868393
0 0.015 0 0 -0.00175699 0
0.005 0.015 0 0 0 -256.028
0.01 0.015 -0.15266 0.184525 -0.00179965 -79.344
0.015 0.015 -0.205716 -0.0242017 -0.00184525 -16.6677
0.02 0.015 -0.203805 -0.0577182 -0.00155763 2.38266
0.025 0.015 -0.183795 -0.0522365 -0.00126807 8.06766
0.03 0.015 -0.160634 -0.0411423 -0.00103527 9.43848
0.035 0.015 -0.139296 -0.031557 -0.000856644 9.34236
0.04 0.015 -0.120998 -0.024335 -0.000719696 8.75934
0.045 0.015 -0.105683 -0.0190446 -0.000613294 8.04814
0.05 0.015 -0.0929405 -0.0151489 -0.000529249 7.34261
0.055 0.015 -0.0823212 -0.0122331 -0.000461805 6.69049
0.06 0.015 -0.0734302 -0.0100091 -0.000406918 6.10542
0.065 0.015 -0.0659442 -0.00828149 -0.000361714 5.58755
0.07 0.015 -0.0596054 -0.00691726 -0.000324103 5.13197
0.075 0.015 -0.054209 -0.0058243 -0.000292541 4.73219
0.08 0.015 -0.0495925 -0.00493758 -0.00026586 4.38162
0.085 0.015 -0.0456259 -0.00421026 -0.000243164 4.07414
0.09 0.015 -0.0422045 -0.00360788 -0.000223756 3.80426
0.095 0.015 -0.0392435 -0.00310469 -0.000207085 3.5672
0.1 0.015 -0.0366738 -0.0026811 -0.000192709 3.35879
0.105 0.015 -0.0344383 -0.00232203 -0.000180273 3.17546
0.11 0.015 -0.0324899 -0.00201571 -0.000169488 3.0141
0.115 0.015 -0.0307893 -0.00175283 -0.000160115 2.87205
0.12 0.015 -0.0293037 -0.00152602 -0.000151959 2.74702
0.125 0.015 -0.0280054 -0.00132934 -0.000144854 2.63702
0.13 0.015 -0.0268709 -0.00115796 -0.000138665 2.54033
0.135 0.015 -0.0258802 -0.00100797 -0.000133274 2.45547
0.14 0.015 -0.0250165 -0.000876163 -0.000128585 2.38113
0.145 0.015 -0.0242649 -0.000759875 -0.000124512 2.31618
0.15 0.015 -0.023613 -0.000656908 -0.000120985 2.25964
0.155 0.015 -0.0230498 -0.000565425 -0.000117942 2.21063
0.16 0.015 -0.0225657 -0.000483888 -0.00011533 2.1684
0.165 0.015 -0.0221527 -0.000411003 -0.000113103 2.13225
0.17 0.015 -0.0218032 -0.000345675 -0.00011122 2.10161
0.175 0.015 -0.0215111 -0.000286977 -0.000109646 2.07593
0.18 0.015 -0.0212706 -0.000234119 -0.00010835 2.05474
0.185 0.015 -0.0210767 -0.000186427 -0.000107304 2.03763
0.19 0.015 -0.020925 -0.000143323 -0.000106485 2.0242
0.195 0.015 -0.0208114 -0.000104311 -0.000105871 2.01411
0.2 0.015 -0.0207325 -6.89634e-05 -0.000105442 2.00707
0.205 0.015 -0.0206851 -3.69121e-05 -0.000105181 2.00277
0.21 0.015 -0.0206661 -7.83756e-06 -0.000105072 2.00098
0.215 0.015 -0.0206729 1.85367e-05 -0.000105102 2.00145
0.22 0.015 -0.0207032 4.2451e-05 -0.000105257 2.00398
0.225 0.015 -0.0207547 6.41141e-05 -0.000105527 2.00836
0.23 0.015 -0.0208255 8.37083e-05 -0.000105898 2.01441
0.235 0.015 -0.0209136 0.000101392 -0.000106364 2.02197
0.24 0.015 -0.0210172 0.000117305 -0.000106912 2.03087
0.245 0.015 -0.0211349 0.000131569 -0.000107537 2.04097
0.25 0.015 -0.021265 0.00014429 -0.000108228 2.05214
0.255 0.015 -0.0214062 0.000155562 -0.00010898 2.06424
0.26 0.015 -0.021557 0.000165469 -0.000109784 2.07715
0.265 0.015 -0.0217163 0.000174082 -0.000110634 2.09076
0.27 0.015 -0.0218829 0.000181468 -0.000111525 2.10495
0.275 0.015 -0.0220556 0.000187683 -0.000112449 2.11963
0.28 0.015 -0.0222333 0.00019278 -0.000113402 2.13469
0.285 0.015 -0.0224149 0.000196805 -0.000114377 2.15004
0.29 0.015 -0.0225995 0.0001998 -0.00011537 2.16559
0.295 0.015 -0.0227862 0.000201803 -0.000116376 2.18125
0.3 0.015 -0.0229739 0.000202849 -0.000117389 2.19693
0.305 0.015 -0.0231618 0.000202972 -0.000118405 2.21257
0.31 0.015 -0.0233491 0.000202201 -0.000119419 2.22807
0.315 0.015 -0.0235348 0.000200565 -0.000120427 2.24337
0.32 0.015 -0.0237183 0.000198093 -0.000121425 2.2584
0.325 0.015 -0.0238986 0.00019481 -0.000122409 2.27308
0.33 0.015 -0.0240751 0.000190743 -0.000123374 2.28735
0.335 0.015 -0.0242471 0.000185918 -0.000124317 2.30115
0.34 0.015 -0.0244138 0.000180359 -0.000125234 2.31441
0.345 0.015 -0.0245746 0.000174092 -0.000126121 2.32709
0.35 0.015 -0.0247288 0.000167143 -0.000126976 2.33912
0.355 0.015 -0.0248758 0.000159537 -0.000127794 2.35044
0.36 0.015 -0.0250151 0.000151301 -0.000128572 2.36102
0.365 0.015 -0.0251459 0.000142461 -0.000129307 2.3708
0.37 0.015 -0.0252678 0.000133045 -0.000129997 2.37974
0.375 0.015 -0.0253804 0.000123081 -0.000130639 2.3878
0.38 0.015 -0.025483 0.000112597 -0.000131229 2.39492
0.385 0.015 -0.0255752 0.000101624 -0.000131766 2.40109
0.39 0.015 -0.0256566 9.01898e-05 -0.000132247 2.40626
0.395 0.015 -0.0257268 7.83267e-05 -0.000132669 2.41041
0.4 0.015 -0.0257854 6.60657e-05 -0.000133031 2.41349
0.405 0.015 -0.0258321 5.34389e-05 -0.000133331 2.4155
0.41 0.015 -0.0258666 4.04791e-05 -0.000133567 2.4164
0.415 0.015 -0.0258885 2.72193e-05 -0.000133737 2.41617
0.42 0.015 -0.0258978 1.36934e-05 -0.00013384 2.4148
0.425 0.015 -0.025894 -6.46499e-08 -0.000133875 2.41228
0.43 0.015 -0.0258771 -1.40203e-05 -0.000133841 2.40858
0.435 0.015 -0.0258468 -2.8139e-05 -0.000133736 2.40371
0.44 0.015 -0.0258032 -4.23858e-05 -0.000133561 2.39765
0.445 0.015 -0.025746 -5.6726e-05 -0.000133314 2.39041
0.45 0.015 -0.0256753 -7.11246e-05 -0.000132995 2.38197
0.455 0.015 -0.025591 -8.55472e-05 -0.000132604 2.37235
0.46 0.015 -0.0254932 -9.99593e-05 -0.000132141 2.36155
0.465 0.015 -0.0253818 -0.000114327 -0.000131606 2.34957
0.47 0.015 -0.025257 -0.000128616 -0.000130999 2.33643
0.475 0.015 -0.0251188 -0.000142795 -0.000130321 2.32214
0.48 0.015 -0.0249674 -0.00015683 -0.000129572 2.30671
0.485 0.015 -0.024803 -0.000170691 -0.000128754 2.29016
0.49 0.015 -0.0246257 -0.000184347 -0.000127867 2.27252
0.495 0.015 -0.0244358 -0.000197768 -0.000126912 2.25379
0.5 0.015 -0.0242335 -0.000210926 -0.00012589 2.23401
0.505 0.015 -0.0240191 -0.000223794 -0.000124804 2.2132
0.51 0.015 -0.0237929 -0.000236346 -0.000123654 2.19138
0.515 0.015 -0.0235551 -0.000248556 -0.000122442 2.1686
0.52 0.015 -0.0233062 -0.000260403 -0.00012117 2.14487
0.525 0.015 -0.0230465 -0.000271864 -0.000119839 2.12023
0.53 0.015 -0.0227764 -0.00028292 -0.000118452 2.09472
0.535 0.015 -0.0224962 -0.00029355 -0.000117011 2.06837
0.54 0.015 -0.0222064 -0.00030374 -0.000115518 2.04121
0.545 0.015 -0.0219074 -0.000313472 -0.000113975 2.01329
0.55 0.015 -0.0215996 -0.000322735 -0.000112385 1.98464
0.555 0.015 -0.0212835 -0.000331515 -0.000110749 1.9553
0.56 0.015 -0.0209596 -0.000339803 -0.000109071 1.9253
0.565 0.015 -0.0206282 -0.00034759 -0.000107352 1.8947
0.57 0.015 -0.02029 -0.000354869 -0.000105596 1.86353
0.575 0.015 -0.0199453 -0.000361635 -0.000103805 1.83182
0.58 0.015 -0.0195946 -0.000367885 -0.000101981 1.79963
0.585 0.015 -0.0192384 -0.000373616 -0.000100127 1.767
0.59 0.015 -0.0188773 -0.000378829 -9.82459e-05 1.73395
0.595 0.015 -0.0185116 -0.000383523 -9.63399e-05 1.70054
0.6 0.015 -0.0181419 -0.000387703 -9.44117e-05 1.66681
0.605 0.015 -0.0177687 -0.000391372 -9.24638e-05 1.63279
0.61 0.015 -0.0173923 -0.000394536 -9.04989e-05 1.59853
0.615 0.015 -0.0170133 -0.0003972 -8.85194e-05 1.56406
0.62 0.015 -0.0166322 -0.000399372 -8.65278e-05 1.52943
0.625 0.015 -0.0162494 -0.000401063 -8.45266e-05 1.49466
0.63 0.015 -0.0158653 -0.00040228 -8.25181e-05 1.45981
0.635 0.015 -0.0154803 -0.000403036 -8.05046e-05 1.4249
0.64 0.015 -0.0150949 -0.000403342 -7.84885e-05 1.38997
0.645 0.015 -0.0147096 -0.00040321 -7.6472e-05 1.35505
0.65 0.015 -0.0143246 -0.000402653 -7.44571e-05 1.32018
0.655 0.015 -0.0139404 -0.000401685 -7.24461e-05 1.28539
0.66 0.015 -0.0135574 -0.00040032 -7.0441e-05 1.25071
0.665 0.015 -0.0131759 -0.000398573 -6.84436e-05 1.21618
0.67 0.015 -0.0127963 -0.000396458 -6.64558e-05 1.18182
0.675 0.015 -0.0124188 -0.00039399 -6.44796e-05 1.14765
0.68 0.015 -0.0120439 -0.000391186 -6.25165e-05 1.11372
0.685 0.015 -0.0116718 -0.000388059 -6.05682e-05 1.08003
0.69 0.015 -0.0113029 -0.000384626 -5.86364e-05 1.04663
0.695 0.015 -0.0109373 -0.000380901 -5.67224e-05 1.01352
0.7 0.015 -0.0105754 -0.000376901 -5.48278e-05 0.980737
0.705 0.015 -0.0102174 -0.000372639 -5.29538e-05 0.948299
0.71 0.015 -0.00986349 -0.00036813 -5.11018e-05 0.916226
0.715 0.015 -0.009514 -0.00036339 -4.92729e-05 0.884537
0.72 0.015 -0.00916909 -0.000358431 -4.74683e-05 0.85325
0.725 0.015 -0.00882895 -0.000353268 -4.56889e-05 0.822382
0.73 0.015 -0.00849377 -0.000347913 -4.39359e-05 0.79195
0.735 0.015 -0.00816373 -0.000342381 -4.221e-05 0.761969
0.74 0.015 -0.00783899 -0.000336682 -4.05123e-05 0.732453
0.745 0.015 -0.00751969 -0.000330828 -3.88434e-05 0.703415
0.75 0.015 -0.00720599 -0.000324832 -3.72042e-05 0.674868
0.755 0.015 -0.006898 -0.000318703 -3.55953e-05 0.646823
0.76 0.015 -0.00659586 -0.000312452 -3.40174e-05 0.619291
0.765 0.015 -0.00629966 -0.000306088 -3.24709e-05 0.592284
0.77 0.015 -0.00600952 -0.00029962 -3.09566e-05 0.565809
0.775 0.015 -0.00572554 -0.000293057 -2.94749e-05 0.539877
0.78 0.015 -0.00544779 -0.000286407 -2.80262e-05 0.514494
0.785 0.015 -0.00517636 -0.000279676 -2.66109e-05 0.48967
0.79 0.015 -0.00491133 -0.000272872 -2.52295e-05 0.465411
0.795 0.015 -0.00465277 -0.000266001 -2.38822e-05 0.441724
0.8 0.015 -0.00440073 -0.000259069 -2.25695e-05 0.418615
0.805 0.015 -0.00415528 -0.000252081 -2.12916e-05 0.39609
0.81 0.015 -0.00391647 -0.000245041 -2.00487e-05 0.374155
0.815 0.015 -0.00368435 -0.000237955 -1.88412e-05 0.352814
0.82 0.015 -0.00345896 -0.000230825 -1.76692e-05 0.332073