Title=" Lid Driven Flow"
VARIABLES="X","Y","U","V","psi","xi"
ZONE T= "BOX", I= 201, J=201, F=POINT
0 0 0 0 0.0031184 0
0.005 0 0 0 0 0
0.01 0 0 0 0 0
0.015 0 0 0 0 161.891
0.02 0 0 0 0 176.123
0.025 0 0 0 0 155.602
0.03 0 0 0 0 133.211
0.035 0 0 0 0 115.69
0.04 0 0 0 0 102.836
0.045 0 0 0 0 93.3024
0.05 0 0 0 0 85.9801
0.055 0 0 0 0 80.1359
0.06 0 0 0 0 75.3111
0.065 0 0 0 0 71.217
0.07 0 0 0 0 67.6659
0.075 0 0 0 0 64.5314
0.08 0 0 0 0 61.7251
0.085 0 0 0 0 59.1836
0.09 0 0 0 0 56.8603
0.095 0 0 0 0 54.72
0.1 0 0 0 0 52.7358
0.105 0 0 0 0 50.8868
0.11 0 0 0 0 49.1562
0.115 0 0 0 0 47.5309
0.12 0 0 0 0 45.9999
0.125 0 0 0 0 44.5541
0.13 0 0 0 0 43.1861
0.135 0 0 0 0 41.8893
0.14 0 0 0 0 40.6581
0.145 0 0 0 0 39.4877
0.15 0 0 0 0 38.3736
0.155 0 0 0 0 37.312
0.16 0 0 0 0 36.2994
0.165 0 0 0 0 35.3326
0.17 0 0 0 0 34.4085
0.175 0 0 0 0 33.5245
0.18 0 0 0 0 32.6781
0.185 0 0 0 0 31.8667
0.19 0 0 0 0 31.0883
0.195 0 0 0 0 30.3407
0.2 0 0 0 0 29.622
0.205 0 0 0 0 28.9303
0.21 0 0 0 0 28.2638
0.215 0 0 0 0 27.621
0.22 0 0 0 0 27.0001
0.225 0 0 0 0 26.3998
0.23 0 0 0 0 25.8187
0.235 0 0 0 0 25.2554
0.24 0 0 0 0 24.7087
0.245 0 0 0 0 24.1775
0.25 0 0 0 0 23.6605
0.255 0 0 0 0 23.1568
0.26 0 0 0 0 22.6653
0.265 0 0 0 0 22.1852
0.27 0 0 0 0 21.7156
0.275 0 0 0 0 21.2556
0.28 0 0 0 0 20.8046
0.285 0 0 0 0 20.3617
0.29 0 0 0 0 19.9264
0.295 0 0 0 0 19.498
0.3 0 0 0 0 19.0759
0.305 0 0 0 0 18.6597
0.31 0 0 0 0 18.2488
0.315 0 0 0 0 17.8428
0.32 0 0 0 0 17.4413
0.325 0 0 0 0 17.0439
0.33 0 0 0 0 16.6503
0.335 0 0 0 0 16.2603
0.34 0 0 0 0 15.8734
0.345 0 0 0 0 15.4897
0.35 0 0 0 0 15.1087
0.355 0 0 0 0 14.7304
0.36 0 0 0 0 14.3546
0.365 0 0 0 0 13.9813
0.37 0 0 0 0 13.6103
0.375 0 0 0 0 13.2416
0.38 0 0 0 0 12.8752
0.385 0 0 0 0 12.5111
0.39 0 0 0 0 12.1493
0.395 0 0 0 0 11.7898
0.4 0 0 0 0 11.4327
0.405 0 0 0 0 11.0781
0.41 0 0 0 0 10.7261
0.415 0 0 0 0 10.3769
0.42 0 0 0 0 10.0305
0.425 0 0 0 0 9.68704
0.43 0 0 0 0 9.34679
0.435 0 0 0 0 9.00989
0.44 0 0 0 0 8.67652
0.445 0 0 0 0 8.34687
0.45 0 0 0 0 8.02114
0.455 0 0 0 0 7.69955
0.46 0 0 0 0 7.38231
0.465 0 0 0 0 7.06962
0.47 0 0 0 0 6.76171
0.475 0 0 0 0 6.4588
0.48 0 0 0 0 6.16108
0.485 0 0 0 0 5.86878
0.49 0 0 0 0 5.5821
0.495 0 0 0 0 5.30124
0.5 0 0 0 0 5.02638
0.505 0 0 0 0 4.75772
0.51 0 0 0 0 4.49541
0.515 0 0 0 0 4.23962
0.52 0 0 0 0 3.99049
0.525 0 0 0 0 3.74816
0.53 0 0 0 0 3.51274
0.535 0 0 0 0 3.28435
0.54 0 0 0 0 3.06305
0.545 0 0 0 0 2.84894
0.55 0 0 0 0 2.64205
0.555 0 0 0 0 2.44243
0.56 0 0 0 0 2.2501
0.565 0 0 0 0 2.06506
0.57 0 0 0 0 1.8873
0.575 0 0 0 0 1.71678
0.58 0 0 0 0 1.55346
0.585 0 0 0 0 1.39727
0.59 0 0 0 0 1.24815
0.595 0 0 0 0 1.106
0.6 0 0 0 0 0.970709
0.605 0 0 0 0 0.842163
0.61 0 0 0 0 0.720233
0.615 0 0 0 0 0.604776
0.62 0 0 0 0 0.495643
0.625 0 0 0 0 0.392673
0.63 0 0 0 0 0.295699
0.635 0 0 0 0 0.204547
0.64 0 0 0 0 0.119036
0.645 0 0 0 0 0.0389803
0.65 0 0 0 0 -0.0358086
0.655 0 0 0 0 -0.105523
0.66 0 0 0 0 -0.170358
0.665 0 0 0 0 -0.23051
0.67 0 0 0 0 -0.286175
0.675 0 0 0 0 -0.337552
0.68 0 0 0 0 -0.384837
0.685 0 0 0 0 -0.428228
0.69 0 0 0 0 -0.467921
0.695 0 0 0 0 -0.504109
0.7 0 0 0 0 -0.536987
0.705 0 0 0 0 -0.566745
0.71 0 0 0 0 -0.593573
0.715 0 0 0 0 -0.617656
0.72 0 0 0 0 -0.63918
0.725 0 0 0 0 -0.658323
0.73 0 0 0 0 -0.675261
0.735 0 0 0 0 -0.690164
0.74 0 0 0 0 -0.703199
0.745 0 0 0 0 -0.714522
0.75 0 0 0 0 -0.724283
0.755 0 0 0 0 -0.732623
0.76 0 0 0 0 -0.739672
0.765 0 0 0 0 -0.74555
0.77 0 0 0 0 -0.750361
0.775 0 0 0 0 -0.754199
0.78 0 0 0 0 -0.757142
0.785 0 0 0 0 -0.75925
0.79 0 0 0 0 -0.760571
0.795 0 0 0 0 -0.761135
0.8 0 0 0 0 -0.760954
0.805 0 0 0 0 -0.760025
0.81 0 0 0 0 -0.758331
0.815 0 0 0 0 -0.755838
0.82 0 0 0 0 -0.752499
0.825 0 0 0 0 -0.748255
0.83 0 0 0 0 -0.743035
0.835 0 0 0 0 -0.736761
0.84 0 0 0 0 -0.729348
0.845 0 0 0 0 -0.720706
0.85 0 0 0 0 -0.710747
0.855 0 0 0 0 -0.699379
0.86 0 0 0 0 -0.686518
0.865 0 0 0 0 -0.672085
0.87 0 0 0 0 -0.656013
0.875 0 0 0 0 -0.638244
0.88 0 0 0 0 -0.61874
0.885 0 0 0 0 -0.597479
0.89 0 0 0 0 -0.574459
0.895 0 0 0 0 -0.549704
0.9 0 0 0 0 -0.523262
0.905 0 0 0 0 -0.495209
0.91 0 0 0 0 -0.465651
0.915 0 0 0 0 -0.434725
0.92 0 0 0 0 -0.402601
0.925 0 0 0 0 -0.369482
0.93 0 0 0 0 -0.335603
0.935 0 0 0 0 -0.301238
0.94 0 0 0 0 -0.266693
0.945 0 0 0 0 -0.23231
0.95 0 0 0 0 -0.198465
0.955 0 0 0 0 -0.165573
0.96 0 0 0 0 -0.134081
0.965 0 0 0 0 -0.104471
0.97 0 0 0 0 -0.0772629
0.975 0 0 0 0 -0.0530037
0.98 0 0 0 0 -0.0322665
0.985 0 0 0 0 -0.0156292
0.99 0 0 0 0 -0.00363054
0.995 0 0 0 0 0.00333527
1 0 0 0 0 0.00526627
0 0.005 0 0 0 0
0.005 0.005 0 0 0 0
0.01 0.005 0 0 0 73.728
0.015 0.005 0 0 0 62.0661
0.02 0.005 0 0 0 45.7152
0.025 0.005 0 0 0 33.947
0.03 0.005 0 0 0 26.0498
0.035 0.005 0 0 0 20.6228
0.04 0.005 0 0 0 16.724
0.045 0.005 0 0 0 13.8015
0.05 0.005 0 0 0 11.5352
0.055 0.005 0 0 0 9.73338
0.06 0.005 0 0 0 8.27523
0.065 0.005 0 0 0 7.08058
0.07 0.005 0 0 0 6.09348
0.075 0.005 0 0 0 5.27314
0.08 0.005 0 0 0 4.58878
0.085 0.005 0 0 0 4.01646
0.09 0.005 0 0 0 3.5372
0.095 0.005 0 0 0 3.13568
0.1 0.005 0 0 0 2.79941
0.105 0.005 0 0 0 2.5181
0.11 0.005 0 0 0 2.28325
0.115 0.005 0 0 0 2.08778
0.12 0.005 0 0 0 1.92578
0.125 0.005 0 0 0 1.79233
0.13 0.005 0 0 0 1.68329
0.135 0.005 0 0 0 1.5952
0.14 0.005 0 0 0 1.52516
0.145 0.005 0 0 0 1.47074
0.15 0.005 0 0 0 1.4299
0.155 0.005 0 0 0 1.4009
0.16 0.005 0 0 0 1.38232
0.165 0.005 0 0 0 1.37295
0.17 0.005 0 0 0 1.37175
0.175 0.005 0 0 0 1.37788
0.18 0.005 0 0 0 1.39061
0.185 0.005 0 0 0 1.40935
0.19 0.005 0 0 0 1.43356
0.195 0.005 0 0 0 1.46283
0.2 0.005 0 0 0 1.49677
0.205 0.005 0 0 0 1.53509
0.21 0.005 0 0 0 1.57749
0.215 0.005 0 0 0 1.62376
0.22 0.005 0 0 0 1.67369
0.225 0.005 0 0 0 1.7271
0.23 0.005 0 0 0 1.78383
0.235 0.005 0 0 0 1.84374
0.24 0.005 0 0 0 1.90668
0.245 0.005 0 0 0 1.97255
0.25 0.005 0 0 0 2.04121
0.255 0.005 0 0 0 2.11257
0.26 0.005 0 0 0 2.1865
0.265 0.005 0 0 0 2.2629
0.27 0.005 0 0 0 2.34166
0.275 0.005 0 0 0 2.42267
0.28 0.005 0 0 0 2.50582
0.285 0.005 0 0 0 2.591
0.29 0.005 0 0 0 2.67809
0.295 0.005 0 0 0 2.76698
0.3 0.005 0 0 0 2.85752
0.305 0.005 0 0 0 2.94961
0.31 0.005 0 0 0 3.0431
0.315 0.005 0 0 0 3.13785
0.32 0.005 0 0 0 3.23373
0.325 0.005 0 0 0 3.3306
0.33 0.005 0 0 0 3.42828
0.335 0.005 0 0 0 3.52664
0.34 0.005 0 0 0 3.6255
0.345 0.005 0 0 0 3.72471
0.35 0.005 0 0 0 3.82409
0.355 0.005 0 0 0 3.92346
0.36 0.005 0 0 0 4.02266
0.365 0.005 0 0 0 4.12149
0.37 0.005 0 0 0 4.21978
0.375 0.005 0 0 0 4.31732
0.38 0.005 0 0 0 4.41394
0.385 0.005 0 0 0 4.50944
0.39 0.005 0 0 0 4.60362
0.395 0.005 0 0 0 4.69628
0.4 0.005 0 0 0 4.78723
0.405 0.005 0 0 0 4.87628
0.41 0.005 0 0 0 4.96321
0.415 0.005 0 0 0 5.04784
0.42 0.005 0 0 0 5.12996
0.425 0.005 0 0 0 5.20938
0.43 0.005 0 0 0 5.2859
0.435 0.005 0 0 0 5.35934
0.44 0.005 0 0 0 5.42951
0.445 0.005 0 0 0 5.49622
0.45 0.005 0 0 0 5.55929
0.455 0.005 0 0 0 5.61855
0.46 0.005 0 0 0 5.67382
0.465 0.005 0 0 0 5.72495
0.47 0.005 0 0 0 5.77176
0.475 0.005 0 0 0 5.81412
0.48 0.005 0 0 0 5.85188
0.485 0.005 0 0 0 5.88491
0.49 0.005 0 0 0 5.91307
0.495 0.005 0 0 0 5.93625
0.5 0.005 0 0 0 5.95435
0.505 0.005 0 0 0 5.96726
0.51 0.005 0 0 0 5.9749
0.515 0.005 0 0 0 5.9772
0.52 0.005 0 0 0 5.97409
0.525 0.005 0 0 0 5.96552
0.53 0.005 0 0 0 5.95145
0.535 0.005 0 0 0 5.93185
0.54 0.005 0 0 0 5.90672
0.545 0.005 0 0 0 5.87606
0.55 0.005 0 0 0 5.83987
0.555 0.005 0 0 0 5.79819
0.56 0.005 0 0 0 5.75106
0.565 0.005 0 0 0 5.69854
0.57 0.005 0 0 0 5.6407
0.575 0.005 0 0 0 5.57762
0.58 0.005 0 0 0 5.50941
0.585 0.005 0 0 0 5.43617
0.59 0.005 0 0 0 5.35805
0.595 0.005 0 0 0 5.27517
0.6 0.005 0 0 0 5.1877
0.605 0.005 0 0 0 5.09581
0.61 0.005 0 0 0 4.99968
0.615 0.005 0 0 0 4.8995
0.62 0.005 0 0 0 4.79548
0.625 0.005 0 0 0 4.68783
0.63 0.005 0 0 0 4.57679
0.635 0.005 0 0 0 4.4626
0.64 0.005 0 0 0 4.34549
0.645 0.005 0 0 0 4.22574
0.65 0.005 0 0 0 4.10359
0.655 0.005 0 0 0 3.97932
0.66 0.005 0 0 0 3.85321
0.665 0.005 0 0 0 3.72552
0.67 0.005 0 0 0 3.59656
0.675 0.005 0 0 0 3.46659
0.68 0.005 0 0 0 3.33591
0.685 0.005 0 0 0 3.2048
0.69 0.005 0 0 0 3.07355
0.695 0.005 0 0 0 2.94244
0.7 0.005 0 0 0 2.81175
0.705 0.005 0 0 0 2.68175
0.71 0.005 0 0 0 2.55271
0.715 0.005 0 0 0 2.4249
0.72 0.005 0 0 0 2.29858
0.725 0.005 0 0 0 2.17398
0.73 0.005 0 0 0 2.05134
0.735 0.005 0 0 0 1.9309
0.74 0.005 0 0 0 1.81286
0.745 0.005 0 0 0 1.69743
0.75 0.005 0 0 0 1.5848
0.755 0.005 0 0 0 1.47515
0.76 0.005 0 0 0 1.36864
0.765 0.005 0 0 0 1.26542
0.77 0.005 0 0 0 1.16562
0.775 0.005 0 0 0 1.06937
0.78 0.005 0 0 0 0.976764
0.785 0.005 0 0 0 0.8879
0.79 0.005 0 0 0 0.802848
0.795 0.005 0 0 0 0.721671
0.8 0.005 0 0 0 0.644411
0.805 0.005 0 0 0 0.571101
0.81 0.005 0 0 0 0.501756
0.815 0.005 0 0 0 0.436379
0.82 0.005 0 0 0 0.37496
0.825 0.005 0 0 0 0.317474
0.83 0.005 0 0 0 0.263888
0.835 0.005 0 0 0 0.214154
0.84 0.005 0 0 0 0.168215
0.845 0.005 0 0 0 0.126004
0.85 0.005 0 0 0 0.0874437
0.855 0.005 0 0 0 0.0524497
0.86 0.005 0 0 0 0.0209292
0.865 0.005 0 0 0 -0.00721726
0.87 0.005 0 0 0 -0.0320952
0.875 0.005 0 0 0 -0.0538155
0.88 0.005 0 0 0 -0.072494
0.885 0.005 0 0 0 -0.0882504
0.89 0.005 0 0 0 -0.101208
0.895 0.005 0 0 0 -0.111493
0.9 0.005 0 0 0 -0.119235
0.905 0.005 0 0 0 -0.124566
0.91 0.005 0 0 0 -0.127619
0.915 0.005 0 0 0 -0.128532
0.92 0.005 0 0 0 -0.127446
0.925 0.005 0 0 0 -0.124504
0.93 0.005 0 0 0 -0.119856
0.935 0.005 0 0 0 -0.113658
0.94 0.005 0 0 0 -0.106074
0.945 0.005 0 0 0 -0.097282
0.95 0.005 0 0 0 -0.0874722
0.955 0.005 0 0 0 -0.0768563
0.96 0.005 0 0 0 -0.0656712
0.965 0.005 0 0 0 -0.0541873
0.97 0.005 0 0 0 -0.0427177
0.975 0.005 0 0 0 -0.0316294
0.98 0.005 0 0 0 -0.0213568
0.985 0.005 0 0 0 -0.012412
0.99 0.005 0 0 0 -0.00538134
0.995 0.005 0 0 0 -0.000869219
1 0.005 0 0 0 0.000732481
0 0.01 0 0 0.000732481 0
0.005 0.01 0 0 0 -326.272
0.01 0.01 -0.18004 0.0775826 -0.0009216 -44.4072
0.015 0.01 -0.184839 -0.035016 -0.000775826 9.52526
0.02 0.01 -0.156343 -0.0351489 -0.00057144 19.1133
0.025 0.01 -0.1275 -0.0245818 -0.000424337 18.9886
0.03 0.01 -0.104098 -0.0166552 -0.000325622 16.8247
0.035 0.01 -0.085888 -0.0116572 -0.000257785 14.4965
0.04 0.01 -0.0716711 -0.00852668 -0.00020905 12.4326
0.045 0.01 -0.0604005 -0.006486 -0.000172518 10.6868
0.05 0.01 -0.0513172 -0.00508512 -0.00014419 9.22391
0.055 0.01 -0.0438939 -0.00407497 -0.000121667 7.996
0.06 0.01 -0.0377612 -0.003316 -0.00010344 6.96098
0.065 0.01 -0.0326545 -0.00272719 -8.85072e-05 6.08501
0.07 0.01 -0.0283786 -0.0022593 -7.61684e-05 5.34134
0.075 0.01 -0.0247847 -0.00188087 -6.59142e-05 4.70872
0.08 0.01 -0.0217569 -0.00157085 -5.73597e-05 4.16999
0.085 0.01 -0.0192026 -0.00131447 -5.02057e-05 3.71111
0.09 0.01 -0.0170469 -0.00110097 -4.42149e-05 3.32042
0.095 0.01 -0.015228 -0.000922232 -3.91959e-05 2.98816
0.1 0.01 -0.013695 -0.000771965 -3.49925e-05 2.70609
0.105 0.01 -0.0124052 -0.00064519 -3.14762e-05 2.46722
0.11 0.01 -0.0113229 -0.0005379 -2.85406e-05 2.26561
0.115 0.01 -0.010418 -0.000446833 -2.60972e-05 2.09618
0.12 0.01 -0.00966523 -0.00036931 -2.40722e-05 1.95459
0.125 0.01 -0.00904313 -0.000303114 -2.2404e-05 1.83714
0.13 0.01 -0.00853366 -0.000246404 -2.1041e-05 1.74066
0.135 0.01 -0.00812155 -0.000197648 -1.99399e-05 1.66245
0.14 0.01 -0.00779387 -0.000155563 -1.90645e-05 1.6002
0.145 0.01 -0.00753969 -0.000119079 -1.83843e-05 1.55192
0.15 0.01 -0.00734976 -8.72954e-05 -1.78737e-05 1.51594
0.155 0.01 -0.00721626 -5.9461e-05 -1.75113e-05 1.49081
0.16 0.01 -0.00713255 -3.49439e-05 -1.7279e-05 1.4753
0.165 0.01 -0.00709305 -1.32146e-05 -1.71618e-05 1.46837
0.17 0.01 -0.00709299 6.17082e-06 -1.71468e-05 1.46911
0.175 0.01 -0.00712837 2.35841e-05 -1.72235e-05 1.47677
0.18 0.01 -0.00719576 3.93365e-05 -1.73826e-05 1.49069
0.185 0.01 -0.00729228 5.36878e-05 -1.76168e-05 1.51031
0.19 0.01 -0.00741545 6.68549e-05 -1.79195e-05 1.53514
0.195 0.01 -0.00756318 7.90179e-05 -1.82853e-05 1.56479
0.2 0.01 -0.00773366 9.03264e-05 -1.87096e-05 1.59887
0.205 0.01 -0.00792534 0.000100904 -1.91885e-05 1.6371
0.21 0.01 -0.00813689 0.000110852 -1.97186e-05 1.6792
0.215 0.01 -0.00836713 0.000120254 -2.0297e-05 1.72492
0.22 0.01 -0.00861504 0.000129178 -2.09212e-05 1.77406
0.225 0.01 -0.00887969 0.000137677 -2.15888e-05 1.82643
0.23 0.01 -0.00916028 0.000145794 -2.22979e-05 1.88186
0.235 0.01 -0.00945603 0.000153565 -2.30467e-05 1.9402
0.24 0.01 -0.00976628 0.000161015 -2.38335e-05 2.00129
0.245 0.01 -0.0100904 0.000168163 -2.46568e-05 2.06499
0.25 0.01 -0.0104276 0.000175024 -2.55152e-05 2.13119
0.255 0.01 -0.0107776 0.000181606 -2.64071e-05 2.19975
0.26 0.01 -0.0111395 0.000187915 -2.73312e-05 2.27055
0.265 0.01 -0.011513 0.000193953 -2.82862e-05 2.34347
0.27 0.01 -0.0118973 0.000199718 -2.92707e-05 2.4184
0.275 0.01 -0.012292 0.000205208 -3.02834e-05 2.4952
0.28 0.01 -0.0126964 0.000210417 -3.13228e-05 2.57376
0.285 0.01 -0.01311 0.000215338 -3.23876e-05 2.65396
0.29 0.01 -0.0135322 0.000219964 -3.34762e-05 2.73567
0.295 0.01 -0.0139623 0.000224284 -3.45872e-05 2.81876
0.3 0.01 -0.0143996 0.000228288 -3.5719e-05 2.90311
0.305 0.01 -0.0148437 0.000231966 -3.68701e-05 2.98858
0.31 0.01 -0.0152937 0.000235307 -3.80387e-05 3.07503
0.315 0.01 -0.015749 0.000238297 -3.92232e-05 3.16233
0.32 0.01 -0.0162089 0.000240926 -4.04217e-05 3.25033
0.325 0.01 -0.0166727 0.000243182 -4.16325e-05 3.33889
0.33 0.01 -0.0171395 0.000245051 -4.28535e-05 3.42785
0.335 0.01 -0.0176086 0.000246523 -4.4083e-05 3.51707
0.34 0.01 -0.0180793 0.000247586 -4.53188e-05 3.60639
0.345 0.01 -0.0185507 0.000248229 -4.65589e-05 3.69564
0.35 0.01 -0.0190219 0.00024844 -4.78011e-05 3.78468
0.355 0.01 -0.0194922 0.000248211 -4.90434e-05 3.87333
0.36 0.01 -0.0199607 0.00024753 -5.02833e-05 3.96142
0.365 0.01 -0.0204264 0.00024639 -5.15187e-05 4.0488
0.37 0.01 -0.0208886 0.000244783 -5.27473e-05 4.13529
0.375 0.01 -0.0213463 0.000242701 -5.39666e-05 4.22072
0.38 0.01 -0.0217986 0.000240137 -5.51743e-05 4.30492
0.385 0.01 -0.0222446 0.000237088 -5.6368e-05 4.38772
0.39 0.01 -0.0226833 0.000233548 -5.75453e-05 4.46895
0.395 0.01 -0.0231139 0.000229515 -5.87036e-05 4.54843
0.4 0.01 -0.0235354 0.000224986 -5.98405e-05 4.62599
0.405 0.01 -0.023947 0.000219961 -6.09535e-05 4.70146
0.41 0.01 -0.0243476 0.00021444 -6.20402e-05 4.77468
0.415 0.01 -0.0247364 0.000208424 -6.3098e-05 4.84548
0.42 0.01 -0.0251125 0.000201918 -6.41246e-05 4.91369
0.425 0.01 -0.0254749 0.000194924 -6.51173e-05 4.97915
0.43 0.01 -0.0258229 0.000187449 -6.60739e-05 5.0417
0.435 0.01 -0.0261555 0.0001795 -6.69919e-05 5.1012
0.44 0.01 -0.0264718 0.000171085 -6.7869e-05 5.15748
0.445 0.01 -0.0267711 0.000162214 -6.87029e-05 5.2104
0.45 0.01 -0.0270526 0.000152897 -6.94913e-05 5.25983
0.455 0.01 -0.0273154 0.000143149 -7.0232e-05 5.30562
0.46 0.01 -0.0275589 0.000132982 -7.09229e-05 5.34764
0.465 0.01 -0.0277822 0.000122413 -7.1562e-05 5.38578
0.47 0.01 -0.0279848 0.000111457 -7.21472e-05 5.41991
0.475 0.01 -0.0281659 0.000100134 -7.26767e-05 5.44992
0.48 0.01 -0.0283249 8.84634e-05 -7.31487e-05 5.47571
0.485 0.01 -0.0284613 7.64658e-05 -7.35615e-05 5.49719
0.49 0.01 -0.0285746 6.41639e-05 -7.39135e-05 5.51427
0.495 0.01 -0.0286642 5.15814e-05 -7.42033e-05 5.52687
0.5 0.01 -0.0287296 3.87433e-05 -7.44295e-05 5.53491
0.505 0.01 -0.0287706 2.56761e-05 -7.45909e-05 5.53835
0.51 0.01 -0.0287868 1.24071e-05 -7.46864e-05 5.53713
0.515 0.01 -0.0287778 -1.03488e-06 -7.47151e-05 5.5312
0.52 0.01 -0.0287434 -1.46201e-05 -7.46763e-05 5.52054
0.525 0.01 -0.0286835 -2.83178e-05 -7.45691e-05 5.50512
0.53 0.01 -0.0285979 -4.20962e-05 -7.43933e-05 5.48494
0.535 0.01 -0.0284866 -5.59227e-05 -7.41484e-05 5.45999
0.54 0.01 -0.0283495 -6.97638e-05 -7.38342e-05 5.43029
0.545 0.01 -0.0281867 -8.35854e-05 -7.34509e-05 5.39585
0.55 0.01 -0.0279984 -9.73529e-05 -7.29986e-05 5.35672
0.555 0.01 -0.0277846 -0.000111031 -7.24776e-05 5.31293
0.56 0.01 -0.0275457 -0.000124584 -7.18885e-05 5.26453
0.565 0.01 -0.027282 -0.000137976 -7.1232e-05 5.2116
0.57 0.01 -0.0269938 -0.000151172 -7.05089e-05 5.15421
0.575 0.01 -0.0266816 -0.000164134 -6.97204e-05 5.09246
0.58 0.01 -0.0263459 -0.000176829 -6.88678e-05 5.02643
0.585 0.01 -0.0259872 -0.000189219 -6.79524e-05 4.95625
0.59 0.01 -0.0256061 -0.000201271 -6.69758e-05 4.88202
0.595 0.01 -0.0252034 -0.000212949 -6.59398e-05 4.80389
0.6 0.01 -0.0247798 -0.00022422 -6.48465e-05 4.722
0.605 0.01 -0.0243361 -0.000235052 -6.36978e-05 4.63649
0.61 0.01 -0.0238731 -0.000245413 -6.24962e-05 4.54752
0.615 0.01 -0.0233918 -0.000255272 -6.12439e-05 4.45528
0.62 0.01 -0.022893 -0.000264601 -5.99436e-05 4.35992
0.625 0.01 -0.022378 -0.000273373 -5.85981e-05 4.26165
0.63 0.01 -0.0218476 -0.000281561 -5.72101e-05 4.16066
0.635 0.01 -0.021303 -0.000289142 -5.57827e-05 4.05714
0.64 0.01 -0.0207454 -0.000296095 -5.43189e-05 3.95131
0.645 0.01 -0.0201758 -0.000302399 -5.28219e-05 3.84338
0.65 0.01 -0.0195956 -0.000308038 -5.1295e-05 3.73357
0.655 0.01 -0.0190059 -0.000312997 -4.97417e-05 3.62209
0.66 0.01 -0.018408 -0.000317263 -4.81652e-05 3.50919
0.665 0.01 -0.0178031 -0.000320828 -4.65692e-05 3.39508
0.67 0.01 -0.0171927 -0.000323683 -4.49571e-05 3.28
0.675 0.01 -0.0165778 -0.000325824 -4.33325e-05 3.16418
0.68 0.01 -0.01596 -0.000327251 -4.1699e-05 3.04786
0.685 0.01 -0.0153404 -0.000327964 -4.00601e-05 2.93127
0.69 0.01 -0.0147203 -0.000327967 -3.84195e-05 2.81464
0.695 0.01 -0.0141011 -0.000327268 -3.67806e-05 2.6982
0.7 0.01 -0.013484 -0.000325876 -3.51469e-05 2.58219
0.705 0.01 -0.0128702 -0.000323803 -3.3522e-05 2.46682
0.71 0.01 -0.012261 -0.000321066 -3.1909e-05 2.35231
0.715 0.01 -0.0116576 -0.000317681 -3.03114e-05 2.23889
0.72 0.01 -0.0110612 -0.000313669 -2.87323e-05 2.12675
0.725 0.01 -0.0104728 -0.000309053 -2.71748e-05 2.0161
0.73 0.01 -0.00989348 -0.000303858 -2.56418e-05 1.90714
0.735 0.01 -0.00932438 -0.000298111 -2.41363e-05 1.80006
0.74 0.01 -0.00876644 -0.000291841 -2.26608e-05 1.69502
0.745 0.01 -0.00822059 -0.000285079 -2.12179e-05 1.5922
0.75 0.01 -0.00768769 -0.000277857 -1.98101e-05 1.49176
0.755 0.01 -0.00716858 -0.000270209 -1.84394e-05 1.39385
0.76 0.01 -0.00666401 -0.000262171 -1.7108e-05 1.29861
0.765 0.01 -0.00617466 -0.000253777 -1.58178e-05 1.20616
0.77 0.01 -0.00570116 -0.000245066 -1.45703e-05 1.11661
0.775 0.01 -0.00524407 -0.000236074 -1.33671e-05 1.03009
0.78 0.01 -0.0048039 -0.000226838 -1.22096e-05 0.946663
0.785 0.01 -0.00438105 -0.000217397 -1.10988e-05 0.866428
0.79 0.01 -0.0039759 -0.000207788 -1.00356e-05 0.789448
0.795 0.01 -0.00358873 -0.000198048 -9.02089e-06 0.715781
0.8 0.01 -0.00321977 -0.000188213 -8.05515e-06 0.645473
0.805 0.01 -0.00286918 -0.00017832 -7.13877e-06 0.578555
0.81 0.01 -0.00253705 -0.000168403 -6.27195e-06 0.51505
0.815 0.01 -0.00222342 -0.000158496 -5.45473e-06 0.45497
0.82 0.01 -0.00192826 -0.000148631 -4.68699e-06 0.398312
0.825 0.01 -0.00165148 -0.000138839 -3.96842e-06 0.345067
0.83 0.01 -0.00139294 -0.000129149 -3.29859e-06 0.295214
0.835 0.01 -0.00115244 -0.00011959 -2.67691e-06 0.248722
0.84 0.01 -0.00092975 -0.000110186 -2.10267e-06 0.20555
0.845 0.01 -0.000724568 -0.000100963 -1.57503e-06 0.16565
0.85 0.01 -0.000536561 -9.19411e-05 -1.09303e-06 0.128965
0.855 0.01 -0.000365356 -8.31413e-05 -6.556e-07 0.0954307
0.86 0.01 -0.00021054 -7.45816e-05 -2.61593e-07 0.0649751
0.865 0.01 -7.16676e-05 -6.62783e-05 9.02376e-08 0.0375198
0.87 0.01 5.17362e-05 -5.82456e-05 4.01212e-07 0.0129807
0.875 0.01 0.000160174 -5.04963e-05 6.72716e-07 -0.00873203
0.88 0.01 0.000254174 -4.30413e-05 9.06198e-07 -0.0277132
0.885 0.01 0.000334283 -3.58902e-05 1.10315e-06 -0.0440622
0.89 0.01 0.00040107 -2.90512e-05 1.26512e-06 -0.0578825
0.895 0.01 0.000455119 -2.25318e-05 1.39369e-06 -0.0692818
0.9 0.01 0.000497033 -1.63384e-05 1.49046e-06 -0.0783713
0.905 0.01 0.000527428 -1.04777e-05 1.55709e-06 -0.0852658
0.91 0.01 0.000546935 -4.95631e-06 1.59526e-06 -0.0900839
0.915 0.01 0.000556203 2.18367e-07 1.60667e-06 -0.0929482
0.92 0.01 0.0005559 5.0373e-06 1.59309e-06 -0.0939858
0.925 0.01 0.000546715 9.48915e-06 1.55631e-06 -0.0933284
0.93 0.01 0.000529364 1.35593e-05 1.49821e-06 -0.0911142
0.935 0.01 0.000504598 1.72283e-05 1.42074e-06 -0.0874883
0.94 0.01 0.00047321 2.0471e-05 1.32594e-06 -0.0826047
0.945 0.01 0.000436049 2.32538e-05 1.21604e-06 -0.0766283
0.95 0.01 0.000394033 2.55332e-05 1.09341e-06 -0.0697373
0.955 0.01 0.000348168 2.72521e-05 9.60711e-07 -0.062126
0.96 0.01 0.000299572 2.83369e-05 8.20896e-07 -0.054008
0.965 0.01 0.0002495 2.86925e-05 6.77346e-07 -0.0456198
0.97 0.01 0.000199376 2.81978e-05 5.33975e-07 -0.0372235
0.975 0.01 0.000150823 2.67014e-05 3.9537e-07 -0.0291075
0.98 0.01 0.000105689 2.40221e-05 2.66962e-07 -0.0215827
0.985 0.01 6.60491e-05 1.99695e-05 1.5515e-07 -0.0149648
0.99 0.01 3.4128e-05 1.44285e-05 6.72669e-08 -0.00952916
0.995 0.01 1.20414e-05 7.64229e-06 1.08651e-08 -0.00540261
1 0.01 1.08443e-06 1.08651e-06 -9.15614e-09 -0.00233337
0 0.015 0 0 -0.000867545 0
0.005 0.015 0 0 0 -255.968
0.01 0.015 -0.152843 0.184839 -0.0018004 -79.2623
0.015 0.015 -0.206207 -0.0236963 -0.00184839 -16.6413
0.02 0.015 -0.204536 -0.0573395 -0.00156343 2.31618
0.025 0.015 -0.18452 -0.0522448 -0.001275 7.93185
0.03 0.015 -0.161027 -0.0416119 -0.00104098 9.25851
0.035 0.015 -0.139046 -0.0324272 -0.00085888 9.12814
0.04 0.015 -0.119859 -0.0254876 -0.000716711 8.50918
0.045 0.015 -0.103498 -0.0203539 -0.000604004 7.75523
0.05 0.015 -0.0896358 -0.0165066 -0.000513172 6.99968
0.055 0.015 -0.0778939 -0.0135561 -0.000438939 6.29214
0.06 0.015 -0.0679308 -0.0112393 -0.000377612 5.64906
0.065 0.015 -0.0594604 -0.00938258 -0.000326545 5.07341
0.07 0.015 -0.0522481 -0.00786983 -0.000283786 4.56269
0.075 0.015 -0.0461011 -0.0066217 -0.000247847 4.11229
0.08 0.015 -0.0408605 -0.00558208 -0.000217568 3.71692
0.085 0.015 -0.0363936 -0.00470999 -0.000192026 3.37127
0.09 0.015 -0.0325893 -0.00397455 -0.000170468 3.07024
0.095 0.015 -0.0293537 -0.00335181 -0.00015228 2.80909
0.1 0.015 -0.026607 -0.00282277 -0.00013695 2.58349
0.105 0.015 -0.0242814 -0.00237208 -0.000124052 2.3895
0.11 0.015 -0.0223192 -0.00198718 -0.000113229 2.22357
0.115 0.015 -0.0206708 -0.00165767 -0.00010418 2.08254
0.12 0.015 -0.0192942 -0.00137488 -9.66521e-05 1.96356
0.125 0.015 -0.0181531 -0.00113155 -9.04311e-05 1.86414
0.13 0.015 -0.0172169 -0.000921562 -8.53365e-05 1.78205
0.135 0.015 -0.016459 -0.000739776 -8.12153e-05 1.71535
0.14 0.015 -0.0158571 -0.000581844 -7.79385e-05 1.66232
0.145 0.015 -0.0153918 -0.000444093 -7.53967e-05 1.62144
0.15 0.015 -0.0150469 -0.000323417 -7.34974e-05 1.59142
0.155 0.015 -0.0148082 -0.00021719 -7.21624e-05 1.5711
0.16 0.015 -0.0146637 -0.000123191 -7.13254e-05 1.55947
0.165 0.015 -0.0146034 -3.95449e-05 -7.09303e-05 1.55568
0.17 0.015 -0.0146185 3.53337e-05 -7.09298e-05 1.55895
0.175 0.015 -0.0147016 0.00010278 -7.12835e-05 1.56863
0.18 0.015 -0.0148462 0.000163921 -7.19575e-05 1.58415
0.185 0.015 -0.015047 0.0002197 -7.29226e-05 1.60499
0.19 0.015 -0.0152992 0.000270912 -7.41544e-05 1.63073
0.195 0.015 -0.0155989 0.000318221 -7.56316e-05 1.66098
0.2 0.015 -0.0159426 0.000362178 -7.73365e-05 1.69539
0.205 0.015 -0.0163273 0.000403245 -7.92533e-05 1.73368
0.21 0.015 -0.0167502 0.000441801 -8.13688e-05 1.77556
0.215 0.015 -0.0172092 0.000478157 -8.36712e-05 1.82082
0.22 0.015 -0.0177022 0.00051257 -8.61503e-05 1.86923
0.225 0.015 -0.0182272 0.000545245 -8.87969e-05 1.9206
0.23 0.015 -0.0187826 0.000576347 -9.16027e-05 1.97475
0.235 0.015 -0.019367 0.000606007 -9.45603e-05 2.03151
0.24 0.015 -0.0199788 0.000634326 -9.76627e-05 2.09073
0.245 0.015 -0.0206168 0.000661379 -0.000100903 2.15226
0.25 0.015 -0.0212795 0.000687222 -0.000104276 2.21596
0.255 0.015 -0.0219659 0.000711891 -0.000107776 2.28169
0.26 0.015 -0.0226746 0.00073541 -0.000111395 2.34931
0.265 0.015 -0.0234046 0.000757787 -0.00011513 2.41871
0.27 0.015 -0.0241545 0.000779022 -0.000118973 2.48974
0.275 0.015 -0.0249233 0.000799104 -0.00012292 2.56228
0.28 0.015 -0.0257096 0.000818017 -0.000126964 2.63619
0.285 0.015 -0.0265123 0.000835738 -0.0001311 2.71135
0.29 0.015 -0.0273302 0.000852238 -0.000135322 2.78763
0.295 0.015 -0.028162 0.000867484 -0.000139623 2.86489
0.3 0.015 -0.0290063 0.000881443 -0.000143997 2.943
0.305 0.015 -0.0298619 0.000894076 -0.000148437 3.02181
0.31 0.015 -0.0307274 0.000905343 -0.000152937 3.1012
0.315 0.015 -0.0316015 0.000915205 -0.000157491 3.18102
0.32 0.015 -0.0324825 0.000923621 -0.00016209 3.26112
0.325 0.015 -0.0333692 0.00093055 -0.000166727 3.34137
0.33 0.015 -0.0342601 0.000935952 -0.000171395 3.42162
0.335 0.015 -0.0351535 0.000939786 -0.000176087 3.50172
0.34 0.015 -0.036048 0.000942017 -0.000180793 3.58153
0.345 0.015 -0.0369419 0.000942606 -0.000185507 3.66088
0.35 0.015 -0.0378337 0.00094152 -0.000190219 3.73963
0.355 0.015 -0.0387217 0.000938727 -0.000194922 3.81763
0.36 0.015 -0.0396043 0.000934199 -0.000199607 3.89473
0.365 0.015 -0.0404797 0.000927907 -0.000204265 3.97078
0.37 0.015 -0.0413463 0.000919831 -0.000208886 4.04561
0.375 0.015 -0.0422024 0.000909949 -0.000213463 4.11909
0.38 0.015 -0.0430463 0.000898246 -0.000217986 4.19105
0.385 0.015 -0.0438762 0.00088471 -0.000222446 4.26136
0.39 0.015 -0.0446904 0.000869333 -0.000226833 4.32986
0.395 0.015 -0.0454873 0.00085211 -0.000231139 4.39641
0.4 0.015 -0.046265 0.000833042 -0.000235355 4.46086
0.405 0.015 -0.0470219 0.000812134 -0.00023947 4.52307
0.41 0.015 -0.0477564 0.000789394 -0.000243477 4.58291
0.415 0.015 -0.0484666 0.000764837 -0.000247365 4.64023
0.42 0.015 -0.0491511 0.000738482 -0.000251125 4.69491
0.425 0.015 -0.0498081 0.000710352 -0.00025475 4.74682
0.43 0.015 -0.0504361 0.000680475 -0.000258229 4.79584
0.435 0.015 -0.0510335 0.000648884 -0.000261555 4.84184
0.44 0.015 -0.0515988 0.000615619 -0.000264719 4.88472
0.445 0.015 -0.0521306 0.000580721 -0.000267712 4.92437
0.45 0.015 -0.0526274 0.00054424 -0.000270526 4.96067
0.455 0.015 -0.0530878 0.000506227 -0.000273155 4.99355
0.46 0.015 -0.0535106 0.000466742 -0.000275589 5.02289
0.465 0.015 -0.0538945 0.000425848 -0.000277823 5.04862
0.47 0.015 -0.0542383 0.000383611 -0.000279848 5.07067
0.475 0.015 -0.054541 0.000340104 -0.000281659 5.08895
0.48 0.015 -0.0548014 0.000295406 -0.00028325 5.1034
0.485 0.015 -0.0550186 0.000249598 -0.000284614 5.11398
0.49 0.015 -0.0551918 0.000202765 -0.000285746 5.12061
0.495 0.015 -0.0553201 0.000155 -0.000286642 5.12327
0.5 0.015 -0.0554029 0.000106397 -0.000287297 5.12192
0.505 0.015 -0.0554394 5.70556e-05 -0.000287707 5.11653
0.51 0.015 -0.0554293 7.07833e-06 -0.000287868 5.10709
0.515 0.015 -0.055372 -4.34278e-05 -0.000287778 5.09358
0.52 0.015 -0.0552673 -9.43527e-05 -0.000287435 5.07599
0.525 0.015 -0.0551149 -0.000145583 -0.000286836 5.05434
0.53 0.015 -0.0549147 -0.000197002 -0.00028598 5.02865
0.535 0.015 -0.0546667 -0.000248491 -0.000284866 4.99892
0.54 0.015 -0.054371 -0.000299929 -0.000283496 4.9652
0.545 0.015 -0.0540278 -0.000351192 -0.000281868 4.92752
0.55 0.015 -0.0536374 -0.000402155 -0.000279984 4.88593
0.555 0.015 -0.0532003 -0.000452692 -0.000277847 4.84049
0.56 0.015 -0.052717 -0.000502675 -0.000275458 4.79126
0.565 0.015 -0.0521881 -0.000551978 -0.000272821 4.73831
0.57 0.015 -0.0516145 -0.000600472 -0.000269939 4.68174
0.575 0.015 -0.0509969 -0.00064803 -0.000266817 4.62161
0.58 0.015 -0.0503365 -0.000694527 -0.00026346 4.55804
0.585 0.015 -0.0496342 -0.000739837 -0.000259873 4.49112
0.59 0.015 -0.0488914 -0.000783838 -0.000256062 4.42097
0.595 0.015 -0.0481093 -0.000826409 -0.000252035 4.34771
0.6 0.015 -0.0472893 -0.000867433 -0.000247799 4.27146
0.605 0.015 -0.0464329 -0.000906796 -0.000243361 4.19236
0.61 0.015 -0.0455418 -0.000944389 -0.000238732 4.11054
0.615 0.015 -0.0446177 -0.000980106 -0.000233918 4.02615
0.62 0.015 -0.0436623 -0.00101385 -0.000228931 3.93934
0.625 0.015 -0.0426775 -0.00104552 -0.000223781 3.85027
0.63 0.015 -0.0416653 -0.00107504 -0.000218477 3.75909
0.635 0.015 -0.0406277 -0.00110231 -0.000213031 3.66599
0.64 0.015 -0.0395668 -0.00112728 -0.000207454 3.57111
0.645 0.015 -0.0384847 -0.00114986 -0.000201759 3.47464
0.65 0.015 -0.0373836 -0.00117001 -0.000195956 3.37676
0.655 0.015 -0.0362658 -0.00118767 -0.000190059 3.27764
0.66 0.015 -0.0351336 -0.0012028 -0.00018408 3.17746
0.665 0.015 -0.0339892 -0.00121537 -0.000178032 3.07642
0.67 0.015 -0.0328351 -0.00122535 -0.000171927 2.97468
0.675 0.015 -0.0316735 -0.00123274 -0.000165779 2.87245
0.68 0.015 -0.0305068 -0.00123753 -0.0001596 2.7699
0.685 0.015 -0.0293373 -0.00123972 -0.000153404 2.66722
0.69 0.015 -0.0281675 -0.00123933 -0.000147204 2.56459
0.695 0.015 -0.0269996 -0.00123638 -0.000141011 2.46219
0.7 0.015 -0.0258358 -0.00123092 -0.00013484 2.36021
0.705 0.015 -0.0246786 -0.00122298 -0.000128703 2.25882
0.71 0.015 -0.0235301 -0.00121263 -0.000122611 2.1582
0.715 0.015 -0.0223924 -0.00119991 -0.000116577 2.05851
0.72 0.015 -0.0212677 -0.00118492 -0.000110612 1.95993
0.725 0.015 -0.020158 -0.00116772 -0.000104728 1.86261
0.73 0.015 -0.0190653 -0.00114841 -9.89351e-05 1.7667
0.735 0.015 -0.0179914 -0.00112707 -9.32441e-05 1.67237
0.74 0.015 -0.0169381 -0.00110383 -8.76647e-05 1.57975
0.745 0.015 -0.0159071 -0.00107877 -8.22061e-05 1.48899
0.75 0.015 -0.0149001 -0.00105203 -7.68772e-05 1.4002
0.755 0.015 -0.0139186 -0.00102371 -7.1686e-05 1.31351
0.76 0.015 -0.0129638 -0.000993948 -6.66402e-05 1.22905
0.765 0.015 -0.0120372 -0.000962867 -6.17467e-05 1.14691
0.77 0.015 -0.0111398 -0.000930598 -5.70117e-05 1.06719
0.775 0.015 -0.0102728 -0.000897276 -5.24408e-05 0.989983
0.78 0.015 -0.009437 -0.000863033 -4.80391e-05 0.915372
0.785 0.015 -0.00863325 -0.000828005 -4.38106e-05 0.843428
0.79 0.015 -0.00786224 -0.000792327 -3.97591e-05 0.774213
0.795 0.015 -0.00712454 -0.000756133 -3.58874e-05 0.707781
0.8 0.015 -0.0064206 -0.000719555 -3.21978e-05 0.644177
0.805 0.015 -0.00575074 -0.000682722 -2.86918e-05 0.583437
0.81 0.015 -0.00511519 -0.000645761 -2.53706e-05 0.525587
0.815 0.015 -0.00451404 -0.000608796 -2.22342e-05 0.470645
0.82 0.015 -0.00394728 -0.000571944 -1.92826e-05 0.41862
0.825 0.015 -0.0034148 -0.00053532 -1.65148e-05 0.369512
0.83 0.015 -0.00291638 -0.000499032 -1.39293e-05 0.323314
0.835 0.015 -0.00245171 -0.000463184 -1.15244e-05 0.280008