Title=" Lid Driven Flow"
VARIABLES="X","Y","U","V","psi","xi"
ZONE T= "BOX", I= 201, J=201, F=POINT
0 0 0 0 0.000523846 0
0.005 0 0 0 0 0
0.01 0 0 0 0 0
0.015 0 0 0 0 161.888
0.02 0 0 0 0 176.134
0.025 0 0 0 0 155.652
0.03 0 0 0 0 133.314
0.035 0 0 0 0 115.851
0.04 0 0 0 0 103.048
0.045 0 0 0 0 93.5542
0.05 0 0 0 0 86.2543
0.055 0 0 0 0 80.413
0.06 0 0 0 0 75.5712
0.065 0 0 0 0 71.4404
0.07 0 0 0 0 67.8345
0.075 0 0 0 0 64.6288
0.08 0 0 0 0 61.7372
0.085 0 0 0 0 59.0985
0.09 0 0 0 0 56.6684
0.095 0 0 0 0 54.4138
0.1 0 0 0 0 52.3097
0.105 0 0 0 0 50.337
0.11 0 0 0 0 48.4807
0.115 0 0 0 0 46.7287
0.12 0 0 0 0 45.0713
0.125 0 0 0 0 43.5004
0.13 0 0 0 0 42.0091
0.135 0 0 0 0 40.5917
0.14 0 0 0 0 39.2428
0.145 0 0 0 0 37.958
0.15 0 0 0 0 36.733
0.155 0 0 0 0 35.5642
0.16 0 0 0 0 34.4478
0.165 0 0 0 0 33.3808
0.17 0 0 0 0 32.36
0.175 0 0 0 0 31.3826
0.18 0 0 0 0 30.4458
0.185 0 0 0 0 29.547
0.19 0 0 0 0 28.6838
0.195 0 0 0 0 27.8538
0.2 0 0 0 0 27.0549
0.205 0 0 0 0 26.285
0.21 0 0 0 0 25.5419
0.215 0 0 0 0 24.824
0.22 0 0 0 0 24.1293
0.225 0 0 0 0 23.4561
0.23 0 0 0 0 22.803
0.235 0 0 0 0 22.1684
0.24 0 0 0 0 21.5509
0.245 0 0 0 0 20.9492
0.25 0 0 0 0 20.3621
0.255 0 0 0 0 19.7884
0.26 0 0 0 0 19.2271
0.265 0 0 0 0 18.6772
0.27 0 0 0 0 18.1379
0.275 0 0 0 0 17.6083
0.28 0 0 0 0 17.0878
0.285 0 0 0 0 16.5757
0.29 0 0 0 0 16.0713
0.295 0 0 0 0 15.5743
0.3 0 0 0 0 15.0842
0.305 0 0 0 0 14.6006
0.31 0 0 0 0 14.1232
0.315 0 0 0 0 13.6518
0.32 0 0 0 0 13.1863
0.325 0 0 0 0 12.7264
0.33 0 0 0 0 12.2722
0.335 0 0 0 0 11.8236
0.34 0 0 0 0 11.3806
0.345 0 0 0 0 10.9434
0.35 0 0 0 0 10.512
0.355 0 0 0 0 10.0866
0.36 0 0 0 0 9.66742
0.365 0 0 0 0 9.25459
0.37 0 0 0 0 8.84838
0.375 0 0 0 0 8.44903
0.38 0 0 0 0 8.05684
0.385 0 0 0 0 7.67206
0.39 0 0 0 0 7.295
0.395 0 0 0 0 6.92594
0.4 0 0 0 0 6.56516
0.405 0 0 0 0 6.21297
0.41 0 0 0 0 5.86962
0.415 0 0 0 0 5.53538
0.42 0 0 0 0 5.21051
0.425 0 0 0 0 4.89521
0.43 0 0 0 0 4.58971
0.435 0 0 0 0 4.29418
0.44 0 0 0 0 4.00877
0.445 0 0 0 0 3.73362
0.45 0 0 0 0 3.46882
0.455 0 0 0 0 3.21444
0.46 0 0 0 0 2.97051
0.465 0 0 0 0 2.73703
0.47 0 0 0 0 2.51399
0.475 0 0 0 0 2.30131
0.48 0 0 0 0 2.09891
0.485 0 0 0 0 1.90667
0.49 0 0 0 0 1.72445
0.495 0 0 0 0 1.55207
0.5 0 0 0 0 1.38934
0.505 0 0 0 0 1.23603
0.51 0 0 0 0 1.09191
0.515 0 0 0 0 0.95672
0.52 0 0 0 0 0.83018
0.525 0 0 0 0 0.712004
0.53 0 0 0 0 0.601894
0.535 0 0 0 0 0.499538
0.54 0 0 0 0 0.404623
0.545 0 0 0 0 0.316825
0.55 0 0 0 0 0.235821
0.555 0 0 0 0 0.161286
0.56 0 0 0 0 0.0928941
0.565 0 0 0 0 0.0303241
0.57 0 0 0 0 -0.0267433
0.575 0 0 0 0 -0.0786216
0.58 0 0 0 0 -0.125618
0.585 0 0 0 0 -0.168033
0.59 0 0 0 0 -0.206159
0.595 0 0 0 0 -0.240277
0.6 0 0 0 0 -0.27066
0.605 0 0 0 0 -0.297572
0.61 0 0 0 0 -0.321263
0.615 0 0 0 0 -0.341973
0.62 0 0 0 0 -0.359931
0.625 0 0 0 0 -0.375353
0.63 0 0 0 0 -0.388443
0.635 0 0 0 0 -0.399392
0.64 0 0 0 0 -0.408382
0.645 0 0 0 0 -0.415579
0.65 0 0 0 0 -0.42114
0.655 0 0 0 0 -0.42521
0.66 0 0 0 0 -0.427921
0.665 0 0 0 0 -0.429397
0.67 0 0 0 0 -0.42975
0.675 0 0 0 0 -0.429084
0.68 0 0 0 0 -0.427493
0.685 0 0 0 0 -0.425062
0.69 0 0 0 0 -0.42187
0.695 0 0 0 0 -0.417988
0.7 0 0 0 0 -0.413481
0.705 0 0 0 0 -0.408409
0.71 0 0 0 0 -0.402827
0.715 0 0 0 0 -0.396783
0.72 0 0 0 0 -0.390325
0.725 0 0 0 0 -0.383494
0.73 0 0 0 0 -0.376332
0.735 0 0 0 0 -0.368874
0.74 0 0 0 0 -0.361157
0.745 0 0 0 0 -0.353212
0.75 0 0 0 0 -0.345072
0.755 0 0 0 0 -0.336766
0.76 0 0 0 0 -0.328322
0.765 0 0 0 0 -0.319766
0.77 0 0 0 0 -0.311124
0.775 0 0 0 0 -0.302419
0.78 0 0 0 0 -0.293675
0.785 0 0 0 0 -0.284912
0.79 0 0 0 0 -0.276149
0.795 0 0 0 0 -0.267406
0.8 0 0 0 0 -0.258697
0.805 0 0 0 0 -0.250039
0.81 0 0 0 0 -0.241443
0.815 0 0 0 0 -0.232922
0.82 0 0 0 0 -0.224486
0.825 0 0 0 0 -0.216141
0.83 0 0 0 0 -0.207895
0.835 0 0 0 0 -0.199753
0.84 0 0 0 0 -0.191716
0.845 0 0 0 0 -0.183787
0.85 0 0 0 0 -0.175965
0.855 0 0 0 0 -0.168249
0.86 0 0 0 0 -0.160636
0.865 0 0 0 0 -0.153123
0.87 0 0 0 0 -0.145705
0.875 0 0 0 0 -0.138376
0.88 0 0 0 0 -0.131132
0.885 0 0 0 0 -0.123966
0.89 0 0 0 0 -0.116873
0.895 0 0 0 0 -0.109847
0.9 0 0 0 0 -0.102884
0.905 0 0 0 0 -0.0959802
0.91 0 0 0 0 -0.0891344
0.915 0 0 0 0 -0.0823468
0.92 0 0 0 0 -0.0756201
0.925 0 0 0 0 -0.0689602
0.93 0 0 0 0 -0.0623767
0.935 0 0 0 0 -0.0558838
0.94 0 0 0 0 -0.0495004
0.945 0 0 0 0 -0.0432517
0.95 0 0 0 0 -0.0371697
0.955 0 0 0 0 -0.0312941
0.96 0 0 0 0 -0.025674
0.965 0 0 0 0 -0.0203683
0.97 0 0 0 0 -0.0154475
0.975 0 0 0 0 -0.0109943
0.98 0 0 0 0 -0.00710437
0.985 0 0 0 0 -0.00388435
0.99 0 0 0 0 -0.00144666
0.995 0 0 0 0 0.000106951
1 0 0 0 0 0.000727716
0 0.005 0 0 0 0
0.005 0.005 0 0 0 0
0.01 0.005 0 0 0 73.7243
0.015 0.005 0 0 0 61.9777
0.02 0.005 0 0 0 45.5124
0.025 0.005 0 0 0 33.6784
0.03 0.005 0 0 0 25.7981
0.035 0.005 0 0 0 20.4665
0.04 0.005 0 0 0 16.7208
0.045 0.005 0 0 0 13.9853
0.05 0.005 0 0 0 11.9197
0.055 0.005 0 0 0 10.3168
0.06 0.005 0 0 0 9.04531
0.065 0.005 0 0 0 8.01867
0.07 0.005 0 0 0 7.17753
0.075 0.005 0 0 0 6.47994
0.08 0.005 0 0 0 5.89543
0.085 0.005 0 0 0 5.40134
0.09 0.005 0 0 0 4.9805
0.095 0.005 0 0 0 4.6197
0.1 0.005 0 0 0 4.30859
0.105 0.005 0 0 0 4.03899
0.11 0.005 0 0 0 3.80434
0.115 0.005 0 0 0 3.59935
0.12 0.005 0 0 0 3.41969
0.125 0.005 0 0 0 3.26181
0.13 0.005 0 0 0 3.12274
0.135 0.005 0 0 0 3.00002
0.14 0.005 0 0 0 2.89158
0.145 0.005 0 0 0 2.79566
0.15 0.005 0 0 0 2.71077
0.155 0.005 0 0 0 2.63562
0.16 0.005 0 0 0 2.56912
0.165 0.005 0 0 0 2.51031
0.17 0.005 0 0 0 2.45837
0.175 0.005 0 0 0 2.41257
0.18 0.005 0 0 0 2.37227
0.185 0.005 0 0 0 2.33693
0.19 0.005 0 0 0 2.30604
0.195 0.005 0 0 0 2.27916
0.2 0.005 0 0 0 2.25591
0.205 0.005 0 0 0 2.23593
0.21 0.005 0 0 0 2.21891
0.215 0.005 0 0 0 2.20456
0.22 0.005 0 0 0 2.19263
0.225 0.005 0 0 0 2.18288
0.23 0.005 0 0 0 2.1751
0.235 0.005 0 0 0 2.16909
0.24 0.005 0 0 0 2.16468
0.245 0.005 0 0 0 2.16169
0.25 0.005 0 0 0 2.15998
0.255 0.005 0 0 0 2.15941
0.26 0.005 0 0 0 2.15984
0.265 0.005 0 0 0 2.16114
0.27 0.005 0 0 0 2.16322
0.275 0.005 0 0 0 2.16595
0.28 0.005 0 0 0 2.16924
0.285 0.005 0 0 0 2.17299
0.29 0.005 0 0 0 2.17712
0.295 0.005 0 0 0 2.18153
0.3 0.005 0 0 0 2.18615
0.305 0.005 0 0 0 2.19091
0.31 0.005 0 0 0 2.19573
0.315 0.005 0 0 0 2.20053
0.32 0.005 0 0 0 2.20527
0.325 0.005 0 0 0 2.20988
0.33 0.005 0 0 0 2.21429
0.335 0.005 0 0 0 2.21846
0.34 0.005 0 0 0 2.22232
0.345 0.005 0 0 0 2.22584
0.35 0.005 0 0 0 2.22897
0.355 0.005 0 0 0 2.23166
0.36 0.005 0 0 0 2.23386
0.365 0.005 0 0 0 2.23555
0.37 0.005 0 0 0 2.23668
0.375 0.005 0 0 0 2.23722
0.38 0.005 0 0 0 2.23714
0.385 0.005 0 0 0 2.23642
0.39 0.005 0 0 0 2.23501
0.395 0.005 0 0 0 2.2329
0.4 0.005 0 0 0 2.23007
0.405 0.005 0 0 0 2.22649
0.41 0.005 0 0 0 2.22216
0.415 0.005 0 0 0 2.21705
0.42 0.005 0 0 0 2.21115
0.425 0.005 0 0 0 2.20444
0.43 0.005 0 0 0 2.19694
0.435 0.005 0 0 0 2.18861
0.44 0.005 0 0 0 2.17947
0.445 0.005 0 0 0 2.1695
0.45 0.005 0 0 0 2.15872
0.455 0.005 0 0 0 2.14711
0.46 0.005 0 0 0 2.13469
0.465 0.005 0 0 0 2.12145
0.47 0.005 0 0 0 2.10742
0.475 0.005 0 0 0 2.09259
0.48 0.005 0 0 0 2.07697
0.485 0.005 0 0 0 2.06058
0.49 0.005 0 0 0 2.04344
0.495 0.005 0 0 0 2.02555
0.5 0.005 0 0 0 2.00693
0.505 0.005 0 0 0 1.98761
0.51 0.005 0 0 0 1.9676
0.515 0.005 0 0 0 1.94692
0.52 0.005 0 0 0 1.92559
0.525 0.005 0 0 0 1.90364
0.53 0.005 0 0 0 1.88109
0.535 0.005 0 0 0 1.85795
0.54 0.005 0 0 0 1.83426
0.545 0.005 0 0 0 1.81005
0.55 0.005 0 0 0 1.78533
0.555 0.005 0 0 0 1.76013
0.56 0.005 0 0 0 1.73448
0.565 0.005 0 0 0 1.70841
0.57 0.005 0 0 0 1.68194
0.575 0.005 0 0 0 1.6551
0.58 0.005 0 0 0 1.62791
0.585 0.005 0 0 0 1.60041
0.59 0.005 0 0 0 1.57262
0.595 0.005 0 0 0 1.54457
0.6 0.005 0 0 0 1.51628
0.605 0.005 0 0 0 1.48778
0.61 0.005 0 0 0 1.45909
0.615 0.005 0 0 0 1.43024
0.62 0.005 0 0 0 1.40126
0.625 0.005 0 0 0 1.37217
0.63 0.005 0 0 0 1.343
0.635 0.005 0 0 0 1.31376
0.64 0.005 0 0 0 1.28448
0.645 0.005 0 0 0 1.25518
0.65 0.005 0 0 0 1.22589
0.655 0.005 0 0 0 1.19662
0.66 0.005 0 0 0 1.1674
0.665 0.005 0 0 0 1.13824
0.67 0.005 0 0 0 1.10917
0.675 0.005 0 0 0 1.0802
0.68 0.005 0 0 0 1.05135
0.685 0.005 0 0 0 1.02264
0.69 0.005 0 0 0 0.994083
0.695 0.005 0 0 0 0.965696
0.7 0.005 0 0 0 0.937494
0.705 0.005 0 0 0 0.909493
0.71 0.005 0 0 0 0.881705
0.715 0.005 0 0 0 0.854146
0.72 0.005 0 0 0 0.826827
0.725 0.005 0 0 0 0.799762
0.73 0.005 0 0 0 0.772962
0.735 0.005 0 0 0 0.746439
0.74 0.005 0 0 0 0.720204
0.745 0.005 0 0 0 0.694269
0.75 0.005 0 0 0 0.668643
0.755 0.005 0 0 0 0.643336
0.76 0.005 0 0 0 0.618359
0.765 0.005 0 0 0 0.593721
0.77 0.005 0 0 0 0.569432
0.775 0.005 0 0 0 0.5455
0.78 0.005 0 0 0 0.521935
0.785 0.005 0 0 0 0.498745
0.79 0.005 0 0 0 0.475939
0.795 0.005 0 0 0 0.453526
0.8 0.005 0 0 0 0.431514
0.805 0.005 0 0 0 0.409913
0.81 0.005 0 0 0 0.388731
0.815 0.005 0 0 0 0.367976
0.82 0.005 0 0 0 0.347657
0.825 0.005 0 0 0 0.327784
0.83 0.005 0 0 0 0.308365
0.835 0.005 0 0 0 0.28941
0.84 0.005 0 0 0 0.270928
0.845 0.005 0 0 0 0.252928
0.85 0.005 0 0 0 0.235421
0.855 0.005 0 0 0 0.218416
0.86 0.005 0 0 0 0.201925
0.865 0.005 0 0 0 0.185958
0.87 0.005 0 0 0 0.170527
0.875 0.005 0 0 0 0.155642
0.88 0.005 0 0 0 0.141316
0.885 0.005 0 0 0 0.127562
0.89 0.005 0 0 0 0.114393
0.895 0.005 0 0 0 0.101822
0.9 0.005 0 0 0 0.0898636
0.905 0.005 0 0 0 0.0785326
0.91 0.005 0 0 0 0.0678443
0.915 0.005 0 0 0 0.0578149
0.92 0.005 0 0 0 0.0484611
0.925 0.005 0 0 0 0.0398004
0.93 0.005 0 0 0 0.0318507
0.935 0.005 0 0 0 0.0246304
0.94 0.005 0 0 0 0.0181582
0.945 0.005 0 0 0 0.0124524
0.95 0.005 0 0 0 0.00753102
0.955 0.005 0 0 0 0.00341022
0.96 0.005 0 0 0 0.000103325
0.965 0.005 0 0 0 -0.00238156
0.97 0.005 0 0 0 -0.00404502
0.975 0.005 0 0 0 -0.00490205
0.98 0.005 0 0 0 -0.00499161
0.985 0.005 0 0 0 -0.00439271
0.99 0.005 0 0 0 -0.00325156
0.995 0.005 0 0 0 -0.00182567
1 0.005 0 0 0 -0.000541575
0 0.01 0 0 -0.000541575 0
0.005 0.01 0 0 0 -326.276
0.01 0.01 -0.179947 0.0774722 -0.000921554 -44.481
0.015 0.01 -0.184455 -0.0352649 -0.000774722 9.44487
0.02 0.01 -0.15564 -0.0353742 -0.000568905 19.0594
0.025 0.01 -0.126668 -0.0246429 -0.00042098 18.9658
0.03 0.01 -0.103425 -0.0165148 -0.000322476 16.8463
0.035 0.01 -0.0856478 -0.0113467 -0.000255832 14.5855
0.04 0.01 -0.0720731 -0.00810155 -0.00020901 12.6136
0.045 0.01 -0.0615738 -0.00600135 -0.000174816 10.9792
0.05 0.01 -0.0533183 -0.00458565 -0.000148996 9.63898
0.055 0.01 -0.046721 -0.00359296 -0.00012896 8.53735
0.06 0.01 -0.0413711 -0.00287262 -0.000113066 7.62553
0.065 0.01 -0.0369766 -0.00233471 -0.000100233 6.86472
0.07 0.01 -0.0333265 -0.0019234 -8.9719e-05 6.22484
0.075 0.01 -0.0302652 -0.00160262 -8.09992e-05 5.68266
0.08 0.01 -0.0276759 -0.00134825 -7.36927e-05 5.22017
0.085 0.01 -0.0254699 -0.00114365 -6.75166e-05 4.82325
0.09 0.01 -0.0235781 -0.000977036 -6.22561e-05 4.48074
0.095 0.01 -0.0219465 -0.000839879 -5.77461e-05 4.18377
0.1 0.01 -0.0205324 -0.000725876 -5.38572e-05 3.92515
0.105 0.01 -0.0193015 -0.000630295 -5.04872e-05 3.69908
0.11 0.01 -0.0182258 -0.000549529 -4.75541e-05 3.5008
0.115 0.01 -0.0172826 -0.000480794 -4.49918e-05 3.32637
0.12 0.01 -0.0164534 -0.000421916 -4.2746e-05 3.17255
0.125 0.01 -0.0157225 -0.00037118 -4.07725e-05 3.03661
0.13 0.01 -0.015077 -0.000327219 -3.90341e-05 2.91625
0.135 0.01 -0.0145061 -0.000288934 -3.75001e-05 2.80955
0.14 0.01 -0.0140004 -0.000255438 -3.61446e-05 2.71484
0.145 0.01 -0.0135522 -0.000226004 -3.49457e-05 2.63073
0.15 0.01 -0.0131547 -0.000200038 -3.38845e-05 2.556
0.155 0.01 -0.0128022 -0.000177049 -3.29452e-05 2.48961
0.16 0.01 -0.0124898 -0.000156626 -3.21139e-05 2.43064
0.165 0.01 -0.012213 -0.00013843 -3.13788e-05 2.37832
0.17 0.01 -0.0119681 -0.000122172 -3.07295e-05 2.33193
0.175 0.01 -0.0117518 -0.000107611 -3.0157e-05 2.29089
0.18 0.01 -0.0115611 -9.45413e-05 -2.96534e-05 2.25465
0.185 0.01 -0.0113936 -8.27881e-05 -2.92116e-05 2.22273
0.19 0.01 -0.0112469 -7.22018e-05 -2.88254e-05 2.19472
0.195 0.01 -0.0111189 -6.2654e-05 -2.84895e-05 2.17022
0.2 0.01 -0.011008 -5.40343e-05 -2.81989e-05 2.14892
0.205 0.01 -0.0109124 -4.62469e-05 -2.79491e-05 2.13049
0.21 0.01 -0.0108306 -3.9209e-05 -2.77364e-05 2.11467
0.215 0.01 -0.0107614 -3.28484e-05 -2.75571e-05 2.1012
0.22 0.01 -0.0107035 -2.71022e-05 -2.74079e-05 2.08987
0.225 0.01 -0.0106559 -2.19152e-05 -2.7286e-05 2.08046
0.23 0.01 -0.0106175 -1.72389e-05 -2.71888e-05 2.07279
0.235 0.01 -0.0105874 -1.30309e-05 -2.71137e-05 2.06667
0.24 0.01 -0.0105648 -9.25353e-06 -2.70585e-05 2.06197
0.245 0.01 -0.0105489 -5.87338e-06 -2.70212e-05 2.05851
0.25 0.01 -0.010539 -2.86089e-06 -2.69998e-05 2.05618
0.255 0.01 -0.0105344 -1.89693e-07 -2.69927e-05 2.05484
0.26 0.01 -0.0105344 2.16377e-06 -2.6998e-05 2.05437
0.265 0.01 -0.0105386 4.22063e-06 -2.70144e-05 2.05467
0.27 0.01 -0.0105463 5.99992e-06 -2.70403e-05 2.05563
0.275 0.01 -0.0105571 7.51881e-06 -2.70745e-05 2.05716
0.28 0.01 -0.0105704 8.79289e-06 -2.71156e-05 2.05916
0.285 0.01 -0.0105859 9.83635e-06 -2.71625e-05 2.06156
0.29 0.01 -0.0106031 1.06622e-05 -2.72141e-05 2.06427
0.295 0.01 -0.0106216 1.12824e-05 -2.72693e-05 2.06721
0.3 0.01 -0.010641 1.17079e-05 -2.73271e-05 2.07031
0.305 0.01 -0.010661 1.1949e-05 -2.73865e-05 2.07351
0.31 0.01 -0.0106812 1.20154e-05 -2.74467e-05 2.07674
0.315 0.01 -0.0107013 1.19159e-05 -2.75069e-05 2.07994
0.32 0.01 -0.010721 1.16591e-05 -2.75661e-05 2.08306
0.325 0.01 -0.01074 1.1253e-05 -2.76236e-05 2.08604
0.33 0.01 -0.0107581 1.07053e-05 -2.76788e-05 2.08882
0.335 0.01 -0.0107749 1.00235e-05 -2.77309e-05 2.09137
0.34 0.01 -0.0107903 9.21458e-06 -2.77793e-05 2.09362
0.345 0.01 -0.010804 8.28547e-06 -2.78233e-05 2.09555
0.35 0.01 -0.0108158 7.24289e-06 -2.78624e-05 2.09712
0.355 0.01 -0.0108254 6.09337e-06 -2.78959e-05 2.09827
0.36 0.01 -0.0108328 4.84333e-06 -2.79235e-05 2.09898
0.365 0.01 -0.0108376 3.49906e-06 -2.79446e-05 2.09921
0.37 0.01 -0.0108398 2.06676e-06 -2.79588e-05 2.09893
0.375 0.01 -0.0108392 5.52554e-07 -2.79656e-05 2.09812
0.38 0.01 -0.0108355 -1.03751e-06 -2.79646e-05 2.09674
0.385 0.01 -0.0108288 -2.69745e-06 -2.79555e-05 2.09477
0.39 0.01 -0.0108189 -4.42135e-06 -2.79379e-05 2.09219
0.395 0.01 -0.0108056 -6.20334e-06 -2.79116e-05 2.08898
0.4 0.01 -0.0107889 -8.03761e-06 -2.78762e-05 2.08512
0.405 0.01 -0.0107687 -9.91841e-06 -2.78315e-05 2.0806
0.41 0.01 -0.0107449 -1.184e-05 -2.77773e-05 2.07539
0.415 0.01 -0.0107174 -1.37969e-05 -2.77134e-05 2.0695
0.42 0.01 -0.0106861 -1.57833e-05 -2.76396e-05 2.0629
0.425 0.01 -0.0106511 -1.7794e-05 -2.75559e-05 2.05559
0.43 0.01 -0.0106123 -1.98234e-05 -2.7462e-05 2.04757
0.435 0.01 -0.0105696 -2.18662e-05 -2.7358e-05 2.03882
0.44 0.01 -0.0105231 -2.39173e-05 -2.72437e-05 2.02935
0.445 0.01 -0.0104727 -2.59716e-05 -2.71191e-05 2.01916
0.45 0.01 -0.0104185 -2.8024e-05 -2.69843e-05 2.00825
0.455 0.01 -0.0103604 -3.00697e-05 -2.68392e-05 1.99662
0.46 0.01 -0.0102984 -3.2104e-05 -2.66839e-05 1.98427
0.465 0.01 -0.0102327 -3.41223e-05 -2.65185e-05 1.97121
0.47 0.01 -0.0101632 -3.61202e-05 -2.63431e-05 1.95745
0.475 0.01 -0.01009 -3.80935e-05 -2.61577e-05 1.94299
0.48 0.01 -0.0100131 -4.0038e-05 -2.59625e-05 1.92785
0.485 0.01 -0.00993255 -4.195e-05 -2.57576e-05 1.91204
0.49 0.01 -0.0098485 -4.38255e-05 -2.55433e-05 1.89558
0.495 0.01 -0.00976097 -4.56613e-05 -2.53197e-05 1.87846
0.5 0.01 -0.00967006 -4.74538e-05 -2.5087e-05 1.86072
0.505 0.01 -0.00957584 -4.92001e-05 -2.48455e-05 1.84236
0.51 0.01 -0.00947841 -5.08972e-05 -2.45953e-05 1.82341
0.515 0.01 -0.00937786 -5.25425e-05 -2.43368e-05 1.80388
0.52 0.01 -0.00927429 -5.41334e-05 -2.40702e-05 1.7838
0.525 0.01 -0.00916782 -5.56678e-05 -2.37958e-05 1.76317
0.53 0.01 -0.00905854 -5.71435e-05 -2.35139e-05 1.74203
0.535 0.01 -0.00894656 -5.85588e-05 -2.32247e-05 1.72038
0.54 0.01 -0.00883202 -5.99121e-05 -2.29286e-05 1.69827
0.545 0.01 -0.00871501 -6.1202e-05 -2.26259e-05 1.67569
0.55 0.01 -0.00859567 -6.24273e-05 -2.23169e-05 1.65269
0.555 0.01 -0.00847412 -6.35871e-05 -2.20019e-05 1.62928
0.56 0.01 -0.00835047 -6.46806e-05 -2.16813e-05 1.60548
0.565 0.01 -0.00822486 -6.57072e-05 -2.13554e-05 1.58133
0.57 0.01 -0.00809741 -6.66667e-05 -2.10245e-05 1.55683
0.575 0.01 -0.00796825 -6.75588e-05 -2.0689e-05 1.53202
0.58 0.01 -0.00783749 -6.83836e-05 -2.03492e-05 1.50691
0.585 0.01 -0.00770528 -6.91412e-05 -2.00054e-05 1.48154
0.59 0.01 -0.00757172 -6.9832e-05 -1.9658e-05 1.45592
0.595 0.01 -0.00743695 -7.04565e-05 -1.93074e-05 1.43008
0.6 0.01 -0.0073011 -7.10153e-05 -1.89537e-05 1.40404
0.605 0.01 -0.00716427 -7.15093e-05 -1.85974e-05 1.37783
0.61 0.01 -0.0070266 -7.19393e-05 -1.82389e-05 1.35146
0.615 0.01 -0.0068882 -7.23063e-05 -1.78783e-05 1.32496
0.62 0.01 -0.00674918 -7.26115e-05 -1.7516e-05 1.29834
0.625 0.01 -0.00660967 -7.28562e-05 -1.71524e-05 1.27164
0.63 0.01 -0.00646977 -7.30415e-05 -1.67877e-05 1.24487
0.635 0.01 -0.0063296 -7.31691e-05 -1.64222e-05 1.21805
0.64 0.01 -0.00618925 -7.32401e-05 -1.60562e-05 1.1912
0.645 0.01 -0.00604883 -7.32563e-05 -1.569e-05 1.16435
0.65 0.01 -0.00590845 -7.32191e-05 -1.53238e-05 1.1375
0.655 0.01 -0.00576821 -7.31302e-05 -1.49579e-05 1.11068
0.66 0.01 -0.00562819 -7.29911e-05 -1.45927e-05 1.0839
0.665 0.01 -0.00548849 -7.28034e-05 -1.42282e-05 1.05719
0.67 0.01 -0.00534919 -7.25688e-05 -1.38648e-05 1.03055
0.675 0.01 -0.0052104 -7.2289e-05 -1.35027e-05 1.00401
0.68 0.01 -0.00507218 -7.19655e-05 -1.3142e-05 0.977583
0.685 0.01 -0.00493462 -7.15999e-05 -1.27831e-05 0.951279
0.69 0.01 -0.00479779 -7.11938e-05 -1.24262e-05 0.925114
0.695 0.01 -0.00466178 -7.07488e-05 -1.20713e-05 0.899104
0.7 0.01 -0.00452665 -7.02664e-05 -1.17188e-05 0.87326
0.705 0.01 -0.00439247 -6.97479e-05 -1.13688e-05 0.847597
0.71 0.01 -0.0042593 -6.91948e-05 -1.10214e-05 0.822125
0.715 0.01 -0.00412722 -6.86085e-05 -1.06769e-05 0.796858
0.72 0.01 -0.00399628 -6.79902e-05 -1.03354e-05 0.771807
0.725 0.01 -0.00386654 -6.73412e-05 -9.99711e-06 0.746983
0.73 0.01 -0.00373806 -6.66625e-05 -9.66211e-06 0.722397
0.735 0.01 -0.00361089 -6.59554e-05 -9.33057e-06 0.698059
0.74 0.01 -0.00348509 -6.52208e-05 -9.00263e-06 0.673979
0.745 0.01 -0.00336071 -6.44595e-05 -8.67843e-06 0.650167
0.75 0.01 -0.00323779 -6.36726e-05 -8.3581e-06 0.626632
0.755 0.01 -0.00311639 -6.28607e-05 -8.04176e-06 0.603383
0.76 0.01 -0.00299655 -6.20245e-05 -7.72955e-06 0.58043
0.765 0.01 -0.00287832 -6.11647e-05 -7.42157e-06 0.55778
0.77 0.01 -0.00276175 -6.02818e-05 -7.11794e-06 0.535444
0.775 0.01 -0.00264687 -5.93763e-05 -6.81879e-06 0.513428
0.78 0.01 -0.00253372 -5.84484e-05 -6.52422e-06 0.491741
0.785 0.01 -0.00242236 -5.74985e-05 -6.23434e-06 0.470392
0.79 0.01 -0.00231283 -5.65269e-05 -5.94927e-06 0.449389
0.795 0.01 -0.00220516 -5.55335e-05 -5.6691e-06 0.428739
0.8 0.01 -0.0020994 -5.45186e-05 -5.39396e-06 0.40845
0.805 0.01 -0.00199559 -5.34821e-05 -5.12394e-06 0.388532
0.81 0.01 -0.00189377 -5.24238e-05 -4.85915e-06 0.368991
0.815 0.01 -0.00179399 -5.13436e-05 -4.59972e-06 0.349836
0.82 0.01 -0.00169628 -5.02413e-05 -4.34573e-06 0.331076
0.825 0.01 -0.00160069 -4.91165e-05 -4.09731e-06 0.312718
0.83 0.01 -0.00150726 -4.79689e-05 -3.85458e-06 0.294771
0.835 0.01 -0.00141605 -4.6798e-05 -3.61763e-06 0.277245
0.84 0.01 -0.00132708 -4.56032e-05 -3.3866e-06 0.260147
0.845 0.01 -0.00124042 -4.4384e-05 -3.1616e-06 0.243487
0.85 0.01 -0.00115611 -4.31397e-05 -2.94276e-06 0.227274
0.855 0.01 -0.00107419 -4.18695e-05 -2.7302e-06 0.211518
0.86 0.01 -0.00099473 -4.05726e-05 -2.52406e-06 0.196229
0.865 0.01 -0.000917768 -3.92482e-05 -2.32448e-06 0.181417
0.87 0.01 -0.000843362 -3.78952e-05 -2.13158e-06 0.167092
0.875 0.01 -0.000771568 -3.65125e-05 -1.94552e-06 0.153265
0.88 0.01 -0.000702445 -3.5099e-05 -1.76645e-06 0.139948
0.885 0.01 -0.000636052 -3.36535e-05 -1.59452e-06 0.127151
0.89 0.01 -0.000572452 -3.21747e-05 -1.42991e-06 0.114888
0.895 0.01 -0.000511711 -3.0661e-05 -1.27277e-06 0.103169
0.9 0.01 -0.000453894 -2.91112e-05 -1.12329e-06 0.0920081
0.905 0.01 -0.000399072 -2.75235e-05 -9.81649e-07 0.0814181
0.91 0.01 -0.000347317 -2.58964e-05 -8.48046e-07 0.0714124
0.915 0.01 -0.000298703 -2.42282e-05 -7.22678e-07 0.0620047
0.92 0.01 -0.000253307 -2.25173e-05 -6.05757e-07 0.0532088
0.925 0.01 -0.000211209 -2.07623e-05 -4.97498e-07 0.0450389
0.93 0.01 -0.000172486 -1.89618e-05 -3.98127e-07 0.0375088
0.935 0.01 -0.000137221 -1.7115e-05 -3.07874e-07 0.0306322
0.94 0.01 -0.000105491 -1.52219e-05 -2.26971e-07 0.0244219
0.945 0.01 -7.73738e-05 -1.32833e-05 -1.5565e-07 0.0188895
0.95 0.01 -5.29377e-05 -1.13022e-05 -9.4133e-08 0.0140446
0.955 0.01 -3.22411e-05 -9.28414e-06 -4.26237e-08 0.00989335
0.96 0.01 -1.53234e-05 -7.23933e-06 -1.28813e-09 0.00643717
0.965 0.01 -2.19431e-06 -5.18508e-06 2.97723e-08 0.00367012
0.97 0.01 7.18211e-06 -3.15032e-06 5.05649e-08 0.00157546
0.975 0.01 1.29129e-05 -1.18303e-06 6.12771e-08 0.000120653
0.98 0.01 1.52139e-05 6.36831e-07 6.23962e-08 -0.000749714
0.985 0.01 1.44675e-05 2.17516e-06 5.49094e-08 -0.0011232
0.99 0.01 1.13082e-05 3.20885e-06 4.06448e-08 -0.00112936
0.995 0.01 6.74117e-06 3.38751e-06 2.28209e-08 -0.000941721
1 0.01 2.27832e-06 2.28209e-06 6.76964e-09 -0.000741031
0 0.015 0 0 -0.00182266 0
0.005 0.015 0 0 0 -256.042
0.01 0.015 -0.15262 0.184455 -0.00179947 -79.3606
0.015 0.015 -0.205613 -0.0243065 -0.00184455 -16.6702
0.02 0.015 -0.203659 -0.0577866 -0.0015564 2.40083
0.025 0.015 -0.183664 -0.0522153 -0.00126668 8.10051
0.03 0.015 -0.16059 -0.0410206 -0.00103425 9.48051
0.035 0.015 -0.139406 -0.0313519 -0.000856478 9.39169
0.04 0.015 -0.12131 -0.024074 -0.000720731 8.81661
0.045 0.015 -0.106228 -0.0187548 -0.000615738 8.11497
0.05 0.015 -0.0937306 -0.0148528 -0.000533183 7.42061
0.055 0.015 -0.0833545 -0.0119472 -0.00046721 6.78074
0.06 0.015 -0.0746942 -0.00974437 -0.00041371 6.20835
0.065 0.015 -0.0674195 -0.00804456 -0.000369766 5.70299
0.07 0.015 -0.0612683 -0.0067114 -0.000333264 5.25922
0.075 0.015 -0.0560337 -0.00565049 -0.000302651 4.87017
0.08 0.015 -0.0515526 -0.00479525 -0.000276759 4.529
0.085 0.015 -0.0476956 -0.00409784 -0.000254698 4.22942
0.09 0.015 -0.0443592 -0.00352329 -0.00023578 3.9659
0.095 0.015 -0.0414603 -0.00304556 -0.000219465 3.73362
0.1 0.015 -0.0389314 -0.00264502 -0.000205324 3.52846
0.105 0.015 -0.0367173 -0.00230664 -0.000193014 3.34691
0.11 0.015 -0.0347728 -0.00201877 -0.000182257 3.18594
0.115 0.015 -0.0330604 -0.00177232 -0.000172826 3.04299
0.12 0.015 -0.0315487 -0.00156008 -0.000164533 2.91584
0.125 0.015 -0.0302115 -0.00137632 -0.000157224 2.80262
0.13 0.015 -0.0290268 -0.0012164 -0.00015077 2.7017
0.135 0.015 -0.0279758 -0.00107659 -0.00014506 2.61166
0.14 0.015 -0.0270425 -0.000953832 -0.000140003 2.5313
0.145 0.015 -0.0262133 -0.000845624 -0.000135521 2.45956
0.15 0.015 -0.0254762 -0.00074989 -0.000131547 2.3955
0.155 0.015 -0.0248212 -0.000664907 -0.000128022 2.33834
0.16 0.015 -0.0242394 -0.000589238 -0.000124897 2.28735
0.165 0.015 -0.023723 -0.000521673 -0.000122129 2.24192
0.17 0.015 -0.0232653 -0.000461192 -0.00011968 2.20148
0.175 0.015 -0.0228603 -0.000406931 -0.000117517 2.16555
0.18 0.015 -0.0225027 -0.000358155 -0.000115611 2.1337
0.185 0.015 -0.0221878 -0.000314233 -0.000113936 2.10553
0.19 0.015 -0.0219115 -0.000274627 -0.000112468 2.08069
0.195 0.015 -0.0216701 -0.000238872 -0.000111189 2.05887
0.2 0.015 -0.0214603 -0.000206565 -0.00011008 2.03978
0.205 0.015 -0.0212789 -0.00017736 -0.000109124 2.02318
0.21 0.015 -0.0211234 -0.000150952 -0.000108306 2.00881
0.215 0.015 -0.0209913 -0.000127077 -0.000107614 1.99648
0.22 0.015 -0.0208802 -0.000105505 -0.000107035 1.98598
0.225 0.015 -0.0207882 -8.60322e-05 -0.000106559 1.97715
0.23 0.015 -0.0207135 -6.84798e-05 -0.000106175 1.96981
0.235 0.015 -0.0206542 -5.26902e-05 -0.000105874 1.96382
0.24 0.015 -0.0206089 -3.85239e-05 -0.000105648 1.95903
0.245 0.015 -0.020576 -2.58569e-05 -0.000105489 1.95533
0.25 0.015 -0.0205542 -1.45788e-05 -0.00010539 1.95258
0.255 0.015 -0.0205423 -4.59107e-06 -0.000105344 1.95068
0.26 0.015 -0.020539 4.19457e-06 -0.000105345 1.94953
0.265 0.015 -0.0205434 1.18576e-05 -0.000105386 1.94902
0.27 0.015 -0.0205543 1.84695e-05 -0.000105463 1.94908
0.275 0.015 -0.0205708 2.40953e-05 -0.000105571 1.9496
0.28 0.015 -0.020592 2.8794e-05 -0.000105705 1.95052
0.285 0.015 -0.0206171 3.26194e-05 -0.00010586 1.95175
0.29 0.015 -0.0206453 3.56209e-05 -0.000106032 1.95323
0.295 0.015 -0.0206758 3.78441e-05 -0.000106217 1.95489
0.3 0.015 -0.0207078 3.93311e-05 -0.000106411 1.95666
0.305 0.015 -0.0207408 4.01212e-05 -0.00010661 1.95849
0.31 0.015 -0.0207741 4.02512e-05 -0.000106813 1.96033
0.315 0.015 -0.0208071 3.97555e-05 -0.000107014 1.96211
0.32 0.015 -0.0208391 3.86668e-05 -0.000107211 1.96378
0.325 0.015 -0.0208698 3.70161e-05 -0.000107401 1.96531
0.33 0.015 -0.0208985 3.48331e-05 -0.000107582 1.96664
0.335 0.015 -0.0209247 3.21462e-05 -0.00010775 1.96774
0.34 0.015 -0.0209481 2.89828e-05 -0.000107904 1.96856
0.345 0.015 -0.0209682 2.53696e-05 -0.000108041 1.96906
0.35 0.015 -0.0209845 2.13322e-05 -0.000108159 1.96922
0.355 0.015 -0.0209967 1.6896e-05 -0.000108255 1.969
0.36 0.015 -0.0210045 1.20855e-05 -0.000108329 1.96837
0.365 0.015 -0.0210075 6.92497e-06 -0.000108377 1.96729
0.37 0.015 -0.0210053 1.43811e-06 -0.000108399 1.96575
0.375 0.015 -0.0209977 -4.35161e-06 -0.000108393 1.96372
0.38 0.015 -0.0209845 -1.04211e-05 -0.000108357 1.96118
0.385 0.015 -0.0209654 -1.67475e-05 -0.000108289 1.95811
0.39 0.015 -0.0209401 -2.33083e-05 -0.00010819 1.95448
0.395 0.015 -0.0209084 -3.00812e-05 -0.000108058 1.95029
0.4 0.015 -0.0208703 -3.70442e-05 -0.000107891 1.94552
0.405 0.015 -0.0208254 -4.41754e-05 -0.000107688 1.94016
0.41 0.015 -0.0207737 -5.14534e-05 -0.00010745 1.93418
0.415 0.015 -0.0207151 -5.88569e-05 -0.000107175 1.9276
0.42 0.015 -0.0206494 -6.63651e-05 -0.000106863 1.9204
0.425 0.015 -0.0205766 -7.39573e-05 -0.000106513 1.91256
0.43 0.015 -0.0204966 -8.16132e-05 -0.000106124 1.9041
0.435 0.015 -0.0204094 -8.93131e-05 -0.000105698 1.89501
0.44 0.015 -0.0203149 -9.70375e-05 -0.000105232 1.88528
0.445 0.015 -0.0202131 -0.000104767 -0.000104729 1.87492
0.45 0.015 -0.0201041 -0.000112484 -0.000104186 1.86392
0.455 0.015 -0.0199878 -0.00012017 -0.000103605 1.8523
0.46 0.015 -0.0198644 -0.000127807 -0.000102986 1.84006
0.465 0.015 -0.0197338 -0.000135379 -0.000102328 1.8272
0.47 0.015 -0.0195962 -0.000142869 -0.000101633 1.81374
0.475 0.015 -0.0194516 -0.000150261 -0.000100901 1.79967
0.48 0.015 -0.0193001 -0.000157541 -0.000100132 1.78502
0.485 0.015 -0.0191419 -0.000164694 -9.93268e-05 1.76978
0.49 0.015 -0.0189771 -0.000171707 -9.84863e-05 1.75398
0.495 0.015 -0.0188058 -0.000178567 -9.7611e-05 1.73762
0.5 0.015 -0.0186282 -0.000185261 -9.67019e-05 1.72073
0.505 0.015 -0.0184444 -0.000191779 -9.57597e-05 1.70331
0.51 0.015 -0.0182546 -0.000198109 -9.47854e-05 1.68538
0.515 0.015 -0.0180591 -0.000204242 -9.37799e-05 1.66696
0.52 0.015 -0.0178579 -0.00021017 -9.27442e-05 1.64806
0.525 0.015 -0.0176513 -0.000215883 -9.16794e-05 1.6287
0.53 0.015 -0.0174396 -0.000221375 -9.05866e-05 1.6089
0.535 0.015 -0.0172228 -0.00022664 -8.94668e-05 1.58868
0.54 0.015 -0.0170012 -0.00023167 -8.83214e-05 1.56806
0.545 0.015 -0.0167751 -0.000236462 -8.71513e-05 1.54706
0.55 0.015 -0.0165447 -0.000241012 -8.59579e-05 1.52569
0.555 0.015 -0.0163102 -0.000245315 -8.47423e-05 1.50397
0.56 0.015 -0.0160718 -0.00024937 -8.35059e-05 1.48193
0.565 0.015 -0.0158298 -0.000253175 -8.22497e-05 1.45959
0.57 0.015 -0.0155843 -0.000256728 -8.09752e-05 1.43697
0.575 0.015 -0.0153357 -0.000260028 -7.96835e-05 1.41408
0.58 0.015 -0.0150842 -0.000263077 -7.8376e-05 1.39094
0.585 0.015 -0.01483 -0.000265875 -7.70538e-05 1.36759
0.59 0.015 -0.0145734 -0.000268423 -7.57182e-05 1.34403
0.595 0.015 -0.0143145 -0.000270724 -7.43705e-05 1.32029
0.6 0.015 -0.0140536 -0.000272779 -7.30119e-05 1.29638
0.605 0.015 -0.013791 -0.000274592 -7.16436e-05 1.27233
0.61 0.015 -0.0135268 -0.000276166 -7.02669e-05 1.24815
0.615 0.015 -0.0132612 -0.000277505 -6.88829e-05 1.22387
0.62 0.015 -0.0129946 -0.000278614 -6.74927e-05 1.1995
0.625 0.015 -0.0127271 -0.000279497 -6.60975e-05 1.17505
0.63 0.015 -0.0124589 -0.000280158 -6.46985e-05 1.15056
0.635 0.015 -0.0121902 -0.000280604 -6.32967e-05 1.12603
0.64 0.015 -0.0119212 -0.000280839 -6.18932e-05 1.10149
0.645 0.015 -0.0116522 -0.000280869 -6.04891e-05 1.07694
0.65 0.015 -0.0113832 -0.0002807 -5.90852e-05 1.0524
0.655 0.015 -0.0111145 -0.000280338 -5.76827e-05 1.0279
0.66 0.015 -0.0108463 -0.000279788 -5.62825e-05 1.00344
0.665 0.015 -0.0105787 -0.000279057 -5.48855e-05 0.979046
0.67 0.015 -0.0103119 -0.000278151 -5.34925e-05 0.954723
0.675 0.015 -0.010046 -0.000277075 -5.21045e-05 0.930488
0.68 0.015 -0.00978132 -0.000275836 -5.07223e-05 0.906354
0.685 0.015 -0.00951784 -0.000274439 -4.93467e-05 0.882335
0.69 0.015 -0.00925578 -0.000272891 -4.79785e-05 0.858442
0.695 0.015 -0.00899526 -0.000271196 -4.66183e-05 0.834689
0.7 0.015 -0.00873642 -0.000269361 -4.52669e-05 0.811086
0.705 0.015 -0.00847938 -0.000267391 -4.39251e-05 0.787645
0.71 0.015 -0.00822428 -0.000265291 -4.25934e-05 0.764376
0.715 0.015 -0.00797124 -0.000263065 -4.12726e-05 0.74129
0.72 0.015 -0.00772036 -0.000260719 -3.99632e-05 0.718398
0.725 0.015 -0.00747176 -0.000258257 -3.86658e-05 0.695708
0.73 0.015 -0.00722554 -0.000255683 -3.73809e-05 0.673231
0.735 0.015 -0.00698182 -0.000253001 -3.61092e-05 0.650976
0.74 0.015 -0.00674069 -0.000250215 -3.48512e-05 0.628951
0.745 0.015 -0.00650224 -0.000247328 -3.36074e-05 0.607165
0.75 0.015 -0.00626658 -0.000244344 -3.23782e-05 0.585626
0.755 0.015 -0.00603378 -0.000241264 -3.11642e-05 0.564343
0.76 0.015 -0.00580395 -0.000238092 -2.99658e-05 0.543324
0.765 0.015 -0.00557717 -0.000234829 -2.87834e-05 0.522577
0.77 0.015 -0.00535352 -0.000231478 -2.76176e-05 0.502109
0.775 0.015 -0.00513309 -0.000228041 -2.64688e-05 0.481928
0.78 0.015 -0.00491596 -0.000224517 -2.53374e-05 0.462042
0.785 0.015 -0.00470221 -0.000220909 -2.42238e-05 0.442457
0.79 0.015 -0.00449193 -0.000217217 -2.31284e-05 0.423183
0.795 0.015 -0.00428518 -0.000213442 -2.20517e-05 0.404225
0.8 0.015 -0.00408206 -0.000209583 -2.09941e-05 0.385592
0.805 0.015 -0.00388265 -0.00020564 -1.9956e-05 0.36729