Title=" Lid Driven Flow"
VARIABLES="time","err1","err2"
ZONE T= "BOX", I= 257, J=257, F=POINT
0 0 -3.37758
0.02 -1.71793e-05 -3.32553
0.04 -2.03209e-05 -3.2514
0.06 -2.14233e-05 -3.1759
0.08 -2.18468e-05 -3.10125
0.1 -2.1962e-05 -3.02803
0.12 -2.19123e-05 -2.95642
0.14 -2.17655e-05 -2.88647
0.16 -2.15578e-05 -2.81821
0.18 -2.13104e-05 -2.7516
0.2 -2.10366e-05 -2.68664
0.22 -2.0745e-05 -2.62329
0.24 -2.04416e-05 -2.56151
0.26 -2.01306e-05 -2.50126
0.28 -1.9815e-05 -2.44252
0.3 -1.9497e-05 -2.38524
0.32 -1.91783e-05 -2.32938
0.34 -1.88602e-05 -2.27492
0.36 -1.85436e-05 -2.22181
0.38 -1.82293e-05 -2.17001
0.4 -1.79179e-05 -2.11951
0.42 -1.76098e-05 -2.07025
0.44 -1.73053e-05 -2.02221
0.46 -1.70049e-05 -1.97536
0.48 -1.67085e-05 -1.92966
0.5 -1.64165e-05 -1.88508
0.52 -1.6129e-05 -1.8416
0.54 -1.58459e-05 -1.79918
0.56 -1.55674e-05 -1.75781
0.58 -1.52935e-05 -1.71744
0.6 -1.50242e-05 -1.67805
0.62 -1.47595e-05 -1.63963
0.64 -1.44994e-05 -1.60214
0.66 -1.42439e-05 -1.56555
0.68 -1.3993e-05 -1.52985
0.7 -1.37465e-05 -1.49501
0.72 -1.35045e-05 -1.46101
0.74 -1.32669e-05 -1.42783
0.76 -1.30337e-05 -1.39544
0.78 -1.28048e-05 -1.36383
0.8 -1.25801e-05 -1.33298
0.82 -1.23596e-05 -1.30286
0.84 -1.21432e-05 -1.27346
0.86 -1.19308e-05 -1.24475
0.88 -1.17224e-05 -1.21673
0.9 -1.1518e-05 -1.18937
0.92 -1.13174e-05 -1.16266
0.94 -1.11206e-05 -1.13657
0.96 -1.09275e-05 -1.1111
0.98 -1.0738e-05 -1.08623
1 -1.05522e-05 -1.06194
1.02 -1.03698e-05 -1.03822
1.04 -1.01909e-05 -1.01505
1.06 -1.00154e-05 -0.992425
1.08 -9.84326e-06 -0.970323
1.1 -9.67436e-06 -0.948735
1.12 -9.50866e-06 -0.927647
1.14 -9.3461e-06 -0.907047
1.16 -9.18662e-06 -0.886922
1.18 -9.03016e-06 -0.867261
1.2 -8.87667e-06 -0.848053
1.22 -8.72608e-06 -0.829285
1.24 -8.57835e-06 -0.810948
1.26 -8.4334e-06 -0.79303
1.28 -8.29119e-06 -0.775521
1.3 -8.15167e-06 -0.758412
1.32 -8.01478e-06 -0.741691
1.34 -7.88047e-06 -0.725351
1.36 -7.74868e-06 -0.709381
1.38 -7.61938e-06 -0.693773
1.4 -7.4925e-06 -0.678518
1.42 -7.36801e-06 -0.663607
1.44 -7.24585e-06 -0.649032
1.46 -7.12598e-06 -0.634784
1.48 -7.00835e-06 -0.620857
1.5 -6.89291e-06 -0.607242
1.52 -6.77963e-06 -0.593931
1.54 -6.66847e-06 -0.580918
1.56 -6.55937e-06 -0.568195
1.58 -6.4523e-06 -0.555756
1.6 -6.34722e-06 -0.543593
1.62 -6.24408e-06 -0.531701
1.64 -6.14286e-06 -0.520072
1.66 -6.0435e-06 -0.508701
1.68 -5.94599e-06 -0.497581
1.7 -5.85027e-06 -0.486706
1.72 -5.75631e-06 -0.476072
1.74 -5.66408e-06 -0.465671
1.76 -5.57354e-06 -0.455499
1.78 -5.48466e-06 -0.44555
1.8 -5.39742e-06 -0.43582
1.82 -5.31176e-06 -0.426302
1.84 -5.22767e-06 -0.416993
1.86 -5.14511e-06 -0.407886
1.88 -5.06405e-06 -0.398979
1.9 -4.98447e-06 -0.390265
1.92 -4.90633e-06 -0.381741
1.94 -4.82961e-06 -0.373401
1.96 -4.75427e-06 -0.365243
1.98 -4.68029e-06 -0.357262
2 -4.60765e-06 -0.349453
2.02 -4.53631e-06 -0.341813
2.04 -4.46626e-06 -0.334338
2.06 -4.39747e-06 -0.327024
2.08 -4.3299e-06 -0.319867
2.1 -4.26355e-06 -0.312865
2.12 -4.19838e-06 -0.306013
2.14 -4.13437e-06 -0.299308
2.16 -4.0715e-06 -0.292747
2.18 -4.00975e-06 -0.286326
2.2 -3.9491e-06 -0.280043
2.22 -3.88952e-06 -0.273894
2.24 -3.83099e-06 -0.267876
2.26 -3.7735e-06 -0.261987
2.28 -3.71702e-06 -0.256223
2.3 -3.66153e-06 -0.250582
2.32 -3.60702e-06 -0.245061
2.34 -3.55346e-06 -0.239657
2.36 -3.50084e-06 -0.234368
2.38 -3.44915e-06 -0.229191
2.4 -3.39835e-06 -0.224123
2.42 -3.34844e-06 -0.219163
2.44 -3.2994e-06 -0.214308
2.46 -3.2512e-06 -0.209556
2.48 -3.20385e-06 -0.204903
2.5 -3.15731e-06 -0.200349
2.52 -3.11158e-06 -0.195891
2.54 -3.06663e-06 -0.191527
2.56 -3.02246e-06 -0.187255
2.58 -2.97905e-06 -0.183072
2.6 -2.93638e-06 -0.178978
2.62 -2.89444e-06 -0.174969
2.64 -2.85322e-06 -0.171045
2.66 -2.8127e-06 -0.167203
2.68 -2.77288e-06 -0.163441
2.7 -2.73373e-06 -0.159758
2.72 -2.69524e-06 -0.156152
2.74 -2.65741e-06 -0.152622
2.76 -2.62021e-06 -0.149165
2.78 -2.58365e-06 -0.145781
2.8 -2.5477e-06 -0.142467
2.82 -2.51235e-06 -0.139223
2.84 -2.4776e-06 -0.136046
2.86 -2.44343e-06 -0.132935
2.88 -2.40983e-06 -0.129889
2.9 -2.37679e-06 -0.126906
2.92 -2.34431e-06 -0.123986
2.94 -2.31236e-06 -0.121126
2.96 -2.28094e-06 -0.118326
2.98 -2.25005e-06 -0.115584
3 -2.21966e-06 -0.112899
3.02 -2.18978e-06 -0.110269
3.04 -2.16039e-06 -0.107695
3.06 -2.13148e-06 -0.105173
3.08 -2.10305e-06 -0.102704
3.1 -2.07509e-06 -0.100286
3.12 -2.04758e-06 -0.0979182
3.14 -2.02052e-06 -0.0955993
3.16 -1.9939e-06 -0.0933285
3.18 -1.96771e-06 -0.0911047
3.2 -1.94195e-06 -0.088927
3.22 -1.9166e-06 -0.0867942
3.24 -1.89167e-06 -0.0847056
3.26 -1.86714e-06 -0.0826602
3.28 -1.843e-06 -0.080657
3.3 -1.81925e-06 -0.0786953
3.32 -1.79588e-06 -0.076774
3.34 -1.77289e-06 -0.0748925
3.36 -1.75026e-06 -0.0730498
3.38 -1.72799e-06 -0.0712452
3.4 -1.70608e-06 -0.0694778
3.42 -1.68451e-06 -0.067747
3.44 -1.66329e-06 -0.0660518
3.46 -1.6424e-06 -0.0643917
3.48 -1.62185e-06 -0.0627658
3.5 -1.60161e-06 -0.0611734
3.52 -1.5817e-06 -0.059614
3.54 -1.56209e-06 -0.0580867
3.56 -1.5428e-06 -0.0565909
3.58 -1.5238e-06 -0.055126
3.6 -1.5051e-06 -0.0536913
3.62 -1.48669e-06 -0.0522862
3.64 -1.46857e-06 -0.0509101
3.66 -1.45073e-06 -0.0495624
3.68 -1.43316e-06 -0.0482425
3.7 -1.41586e-06 -0.0469498
3.72 -1.39884e-06 -0.0456839
3.74 -1.38207e-06 -0.044444
3.76 -1.36556e-06 -0.0432298
3.78 -1.3493e-06 -0.0420406
3.8 -1.33329e-06 -0.040876
3.82 -1.31752e-06 -0.0397355
3.84 -1.30199e-06 -0.0386185
3.86 -1.2867e-06 -0.0375246
3.88 -1.27164e-06 -0.0364533
3.9 -1.2568e-06 -0.0354042
3.92 -1.24219e-06 -0.0343767
3.94 -1.2278e-06 -0.0333705
3.96 -1.21363e-06 -0.0323851
3.98 -1.19966e-06 -0.0314202
4 -1.18591e-06 -0.0304752
4.02 -1.17236e-06 -0.0295497
4.04 -1.15901e-06 -0.0286435
4.06 -1.14586e-06 -0.027756
4.08 -1.1329e-06 -0.026887
4.1 -1.12014e-06 -0.0260359
4.12 -1.10756e-06 -0.0252025
4.14 -1.09516e-06 -0.0243865
4.16 -1.08295e-06 -0.0235874
4.18 -1.07092e-06 -0.0228049
4.2 -1.05906e-06 -0.0220387
4.22 -1.04738e-06 -0.0212884
4.24 -1.03586e-06 -0.0205537
4.26 -1.02451e-06 -0.0198344
4.28 -1.01333e-06 -0.01913
4.3 -1.0023e-06 -0.0184403
4.32 -9.91437e-07 -0.0177651
4.34 -9.80727e-07 -0.0171039
4.36 -9.7017e-07 -0.0164565
4.38 -9.59764e-07 -0.0158227
4.4 -9.49506e-07 -0.0152022
4.42 -9.39394e-07 -0.0145947
4.44 -9.29424e-07 -0.0139999
4.46 -9.19596e-07 -0.0134175
4.48 -9.09906e-07 -0.0128475
4.5 -9.00353e-07 -0.0122894
4.52 -8.90933e-07 -0.011743
4.54 -8.81646e-07 -0.0112081
4.56 -8.72488e-07 -0.0106845
4.58 -8.63457e-07 -0.010172
4.6 -8.54552e-07 -0.00967029
4.62 -8.4577e-07 -0.00917919
4.64 -8.37109e-07 -0.00869848
4.66 -8.28568e-07 -0.00822795
4.68 -8.20144e-07 -0.00776741
4.7 -8.11836e-07 -0.00731664
4.72 -8.03641e-07 -0.00687546
4.74 -7.95558e-07 -0.00644367
4.76 -7.87585e-07 -0.00602109
4.78 -7.7972e-07 -0.00560752
4.8 -7.71962e-07 -0.00520279
4.82 -7.64308e-07 -0.00480672
4.84 -7.56757e-07 -0.00441914
4.86 -7.49308e-07 -0.00403987
4.88 -7.41959e-07 -0.00366875
4.9 -7.34707e-07 -0.00330563
4.92 -7.27553e-07 -0.00295032
4.94 -7.20493e-07 -0.00260269
4.96 -7.13527e-07 -0.00226257
4.98 -7.06653e-07 -0.00192982
5 -6.9987e-07 -0.00160429
5.02 -6.93175e-07 -0.00128583
5.04 -6.86569e-07 -0.000974309
5.06 -6.80049e-07 -0.000669577
5.08 -6.73614e-07 -0.000371503
5.1 -6.67263e-07 -7.99541e-05
5.12 -6.60994e-07 0.000205201
5.14 -6.54806e-07 0.00048409
5.16 -6.48698e-07 0.000756838
5.18 -6.42668e-07 0.00102357
5.2 -6.36716e-07 0.0012844
5.22 -6.3084e-07 0.00153945
5.24 -6.25039e-07 0.00178884
5.26 -6.19312e-07 0.00203267
5.28 -6.13658e-07 0.00227107
5.3 -6.08075e-07 0.00250414
5.32 -6.02562e-07 0.00273197
5.34 -5.97119e-07 0.00295469
5.36 -5.91744e-07 0.00317239
5.38 -5.86437e-07 0.00338518
5.4 -5.81195e-07 0.00359314
5.42 -5.76019e-07 0.00379638
5.44 -5.70908e-07 0.00399499
5.46 -5.65859e-07 0.00418907
5.48 -5.60873e-07 0.0043787
5.5 -5.55948e-07 0.00456397
5.52 -5.51083e-07 0.00474497
5.54 -5.46278e-07 0.00492179
5.56 -5.41532e-07 0.0050945
5.58 -5.36843e-07 0.0052632
5.6 -5.32211e-07 0.00542796
5.62 -5.27636e-07 0.00558886
5.64 -5.23115e-07 0.00574597
5.66 -5.18649e-07 0.00589938
5.68 -5.14236e-07 0.00604916
5.7 -5.09877e-07 0.00619538
5.72 -5.05569e-07 0.0063381
5.74 -5.01312e-07 0.00647741
5.76 -4.97106e-07 0.00661337
5.78 -4.9295e-07 0.00674604
5.8 -4.88842e-07 0.0068755
5.82 -4.84783e-07 0.0070018
5.84 -4.80771e-07 0.00712501
5.86 -4.76807e-07 0.00724519
5.88 -4.72888e-07 0.0073624
5.9 -4.69015e-07 0.00747671
5.92 -4.65187e-07 0.00758816
5.94 -4.61403e-07 0.00769683
5.96 -4.57663e-07 0.00780275
5.98 -4.53965e-07 0.00790599
6 -4.5031e-07 0.00800661
6.02 -4.46697e-07 0.00810465
6.04 -4.43125e-07 0.00820016
6.06 -4.39593e-07 0.0082932
6.08 -4.36102e-07 0.00838382
6.1 -4.32649e-07 0.00847206
6.12 -4.29236e-07 0.00855798
6.14 -4.25861e-07 0.00864161
6.16 -4.22523e-07 0.00872301
6.18 -4.19223e-07 0.00880222
6.2 -4.15959e-07 0.00887929
6.22 -4.12732e-07 0.00895425
6.24 -4.0954e-07 0.00902715
6.26 -4.06384e-07 0.00909803
6.28 -4.03262e-07 0.00916694
6.3 -4.00174e-07 0.0092339
6.32 -3.9712e-07 0.00929897
6.34 -3.941e-07 0.00936218
6.36 -3.91112e-07 0.00942357
6.38 -3.88156e-07 0.00948316
6.4 -3.85233e-07 0.00954101
6.42 -3.82341e-07 0.00959715
6.44 -3.7948e-07 0.0096516
6.46 -3.76649e-07 0.00970441
6.48 -3.73849e-07 0.0097556
6.5 -3.71078e-07 0.00980522
6.52 -3.68337e-07 0.00985329
6.54 -3.65625e-07 0.00989984
6.56 -3.62941e-07 0.00994491
6.58 -3.60286e-07 0.00998852
6.6 -3.57658e-07 0.0100307
6.62 -3.55058e-07 0.0100715
6.64 -3.52485e-07 0.0101109
6.66 -3.49939e-07 0.010149
6.68 -3.47419e-07 0.0101858
6.7 -3.44925e-07 0.0102212
6.72 -3.42456e-07 0.0102555
6.74 -3.40013e-07 0.0102884
6.76 -3.37595e-07 0.0103202
6.78 -3.35202e-07 0.0103508
6.8 -3.32833e-07 0.0103802
6.82 -3.30488e-07 0.0104085
6.84 -3.28167e-07 0.0104357
6.86 -3.25869e-07 0.0104618
6.88 -3.23594e-07 0.0104868
6.9 -3.21343e-07 0.0105108
6.92 -3.19113e-07 0.0105338
6.94 -3.16906e-07 0.0105557
6.96 -3.14721e-07 0.0105767
6.98 -3.12557e-07 0.0105967
7 -3.10415e-07 0.0106158
7.02 -3.08293e-07 0.0106339
7.04 -3.06193e-07 0.0106512
7.06 -3.04113e-07 0.0106676
7.08 -3.02054e-07 0.010683
7.1 -3.00014e-07 0.0106977
7.12 -2.97995e-07 0.0107115
7.14 -2.95994e-07 0.0107245
7.16 -2.94014e-07 0.0107367
7.18 -2.92052e-07 0.0107482
7.2 -2.90109e-07 0.0107588
7.22 -2.88184e-07 0.0107687
7.24 -2.86278e-07 0.0107779
7.26 -2.8439e-07 0.0107864
7.28 -2.8252e-07 0.0107942
7.3 -2.80668e-07 0.0108013
7.32 -2.78833e-07 0.0108077
7.34 -2.77015e-07 0.0108135
7.36 -2.75214e-07 0.0108186
7.38 -2.7343e-07 0.0108231
7.4 -2.71663e-07 0.0108269
7.42 -2.69912e-07 0.0108302
7.44 -2.68178e-07 0.0108329
7.46 -2.66459e-07 0.010835
7.48 -2.64756e-07 0.0108365
7.5 -2.63069e-07 0.0108375
7.52 -2.61397e-07 0.010838
7.54 -2.59741e-07 0.0108379
7.56 -2.58099e-07 0.0108373
7.58 -2.56473e-07 0.0108362
7.6 -2.54861e-07 0.0108346
7.62 -2.53264e-07 0.0108325
7.64 -2.51681e-07 0.01083
7.66 -2.50112e-07 0.010827
7.68 -2.48558e-07 0.0108235
7.7 -2.47017e-07 0.0108196
7.72 -2.4549e-07 0.0108152
7.74 -2.43976e-07 0.0108105
7.76 -2.42476e-07 0.0108053
7.78 -2.40989e-07 0.0107997
7.8 -2.39515e-07 0.0107937
7.82 -2.38054e-07 0.0107873
7.84 -2.36606e-07 0.0107806
7.86 -2.3517e-07 0.0107734
7.88 -2.33747e-07 0.010766
7.9 -2.32337e-07 0.0107581
7.92 -2.30938e-07 0.01075
7.94 -2.29552e-07 0.0107414
7.96 -2.28177e-07 0.0107326
7.98 -2.26814e-07 0.0107234
8 -2.25463e-07 0.0107139
8.02 -2.24124e-07 0.0107042
8.04 -2.22796e-07 0.0106941
8.06 -2.21479e-07 0.0106837
8.08 -2.20173e-07 0.010673
8.1 -2.18878e-07 0.0106621
8.12 -2.17594e-07 0.0106508
8.14 -2.16321e-07 0.0106394
8.16 -2.15059e-07 0.0106276
8.18 -2.13807e-07 0.0106156
8.2 -2.12565e-07 0.0106034
8.22 -2.11334e-07 0.0105909
8.24 -2.10113e-07 0.0105781
8.26 -2.08902e-07 0.0105652
8.28 -2.07701e-07 0.010552
8.3 -2.0651e-07 0.0105386
8.32 -2.05328e-07 0.010525
8.34 -2.04156e-07 0.0105112
8.36 -2.02994e-07 0.0104972
8.38 -2.01841e-07 0.0104829
8.4 -2.00698e-07 0.0104685
8.42 -1.99564e-07 0.0104539
8.44 -1.98439e-07 0.0104391
8.46 -1.97322e-07 0.0104242
8.48 -1.96215e-07 0.010409
8.5 -1.95117e-07 0.0103937
8.52 -1.94028e-07 0.0103783
8.54 -1.92947e-07 0.0103626
8.56 -1.91874e-07 0.0103469
8.58 -1.9081e-07 0.0103309
8.6 -1.89755e-07 0.0103148
8.62 -1.88708e-07 0.0102986
8.64 -1.87669e-07 0.0102822
8.66 -1.86638e-07 0.0102657
8.68 -1.85615e-07 0.0102491
8.7 -1.84601e-07 0.0102323
8.72 -1.83594e-07 0.0102154
8.74 -1.82594e-07 0.0101984
8.76 -1.81603e-07 0.0101813
8.78 -1.80619e-07 0.010164
8.8 -1.79643e-07 0.0101467
8.82 -1.78674e-07 0.0101292
8.84 -1.77713e-07 0.0101117
8.86 -1.76759e-07 0.010094
8.88 -1.75812e-07 0.0100762
8.9 -1.74872e-07 0.0100584
8.92 -1.7394e-07 0.0100404
8.94 -1.73015e-07 0.0100224
8.96 -1.72096e-07 0.0100042
8.98 -1.71184e-07 0.00998602
9 -1.7028e-07 0.00996772
9.02 -1.69382e-07 0.00994935
9.04 -1.6849e-07 0.0099309
9.06 -1.67606e-07 0.00991238
9.08 -1.66728e-07 0.00989379
9.1 -1.65856e-07 0.00987514
9.12 -1.64991e-07 0.00985641
9.14 -1.64132e-07 0.00983763
9.16 -1.63279e-07 0.00981878
9.18 -1.62433e-07 0.00979987
9.2 -1.61593e-07 0.00978091
9.22 -1.60759e-07 0.0097619
9.24 -1.59931e-07 0.00974283
9.26 -1.59109e-07 0.00972371
9.28 -1.58293e-07 0.00970455
9.3 -1.57483e-07 0.00968534
9.32 -1.56679e-07 0.00966609
9.34 -1.5588e-07 0.00964679
9.36 -1.55087e-07 0.00962746
9.38 -1.543e-07 0.00960809
9.4 -1.53519e-07 0.00958868
9.42 -1.52743e-07 0.00956924
9.44 -1.51972e-07 0.00954976
9.46 -1.51207e-07 0.00953026
9.48 -1.50448e-07 0.00951072
9.5 -1.49694e-07 0.00949116
9.52 -1.48945e-07 0.00947157
9.54 -1.48201e-07 0.00945196
9.56 -1.47462e-07 0.00943233
9.58 -1.46729e-07 0.00941267
9.6 -1.46001e-07 0.009393
9.62 -1.45278e-07 0.00937331
9.64 -1.4456e-07 0.0093536
9.66 -1.43846e-07 0.00933387
9.68 -1.43138e-07 0.00931414
9.7 -1.42435e-07 0.00929438
9.72 -1.41736e-07 0.00927462
9.74 -1.41042e-07 0.00925485
9.76 -1.40353e-07 0.00923507
9.78 -1.39669e-07 0.00921528
9.8 -1.38989e-07 0.00919549
9.82 -1.38314e-07 0.00917569
9.84 -1.37644e-07 0.00915588
9.86 -1.36978e-07 0.00913608
9.88 -1.36316e-07 0.00911627
9.9 -1.35659e-07 0.00909646
9.92 -1.35007e-07 0.00907665
9.94 -1.34358e-07 0.00905685
9.96 -1.33714e-07 0.00903704
9.98 -1.33075e-07 0.00901724
10 -1.32439e-07 0.00899745
10.02 -1.31808e-07 0.00897766
10.04 -1.31181e-07 0.00895787
10.06 -1.30558e-07 0.0089381
10.08 -1.2994e-07 0.00891833
10.1 -1.29325e-07 0.00889857
10.12 -1.28714e-07 0.00887882
10.14 -1.28108e-07 0.00885908
10.16 -1.27505e-07 0.00883935
10.18 -1.26906e-07 0.00881964
10.2 -1.26311e-07 0.00879993
10.22 -1.2572e-07 0.00878025
10.24 -1.25133e-07 0.00876057
10.26 -1.2455e-07 0.00874091
10.28 -1.2397e-07 0.00872127
10.3 -1.23394e-07 0.00870165
10.32 -1.22822e-07 0.00868204
10.34 -1.22254e-07 0.00866245
10.36 -1.21689e-07 0.00864288
10.38 -1.21128e-07 0.00862333
10.4 -1.2057e-07 0.0086038
10.42 -1.20016e-07 0.00858429
10.44 -1.19465e-07 0.0085648
10.46 -1.18918e-07 0.00854533
10.48 -1.18374e-07 0.00852588
10.5 -1.17834e-07 0.00850646
10.52 -1.17297e-07 0.00848706
10.54 -1.16763e-07 0.00846769
10.56 -1.16233e-07 0.00844834
10.58 -1.15706e-07 0.00842901
10.6 -1.15183e-07 0.00840971
10.62 -1.14663e-07 0.00839044
10.64 -1.14145e-07 0.00837119
10.66 -1.13632e-07 0.00835197
10.68 -1.13121e-07 0.00833278
10.7 -1.12613e-07 0.00831361
10.72 -1.12109e-07 0.00829448
10.74 -1.11607e-07 0.00827537
10.76 -1.11109e-07 0.00825629
10.78 -1.10614e-07 0.00823724
10.8 -1.10122e-07 0.00821822
10.82 -1.09633e-07 0.00819923
10.84 -1.09146e-07 0.00818027
10.86 -1.08663e-07 0.00816134
10.88 -1.08183e-07 0.00814244
10.9 -1.07705e-07 0.00812358
10.92 -1.07231e-07 0.00810474
10.94 -1.06759e-07 0.00808594
10.96 -1.0629e-07 0.00806717
10.98 -1.05824e-07 0.00804844
11 -1.05361e-07 0.00802973
11.02 -1.049e-07 0.00801106
11.04 -1.04443e-07 0.00799243
11.06 -1.03988e-07 0.00797382
11.08 -1.03535e-07 0.00795526
11.1 -1.03086e-07 0.00793672
11.12 -1.02639e-07 0.00791822
11.14 -1.02194e-07 0.00789976
11.16 -1.01753e-07 0.00788133
11.18 -1.01314e-07 0.00786294
11.2 -1.00877e-07 0.00784458
11.22 -1.00443e-07 0.00782626
11.24 -1.00012e-07 0.00780797
11.26 -9.95826e-08 0.00778972
11.28 -9.91562e-08 0.00777151
11.3 -9.87322e-08 0.00775333
11.32 -9.83107e-08 0.00773519
11.34 -9.78917e-08 0.00771709
11.36 -9.74751e-08 0.00769902
11.38 -9.70608e-08 0.00768099
11.4 -9.6649e-08 0.007663
11.42 -9.62395e-08 0.00764504
11.44 -9.58324e-08 0.00762713
11.46 -9.54276e-08 0.00760925
11.48 -9.50251e-08 0.00759141
11.5 -9.46249e-08 0.00757361
11.52 -9.4227e-08 0.00755584
11.54 -9.38314e-08 0.00753812
11.56 -9.3438e-08 0.00752043
11.58 -9.30468e-08 0.00750278
11.6 -9.26579e-08 0.00748517
11.62 -9.22711e-08 0.0074676
11.64 -9.18865e-08 0.00745007
11.66 -9.15041e-08 0.00743258
11.68 -9.11238e-08 0.00741512
11.7 -9.07457e-08 0.00739771
11.72 -9.03696e-08 0.00738033
11.74 -8.99957e-08 0.007363
11.76 -8.96238e-08 0.0073457
11.78 -8.92541e-08 0.00732844
11.8 -8.88863e-08 0.00731122
11.82 -8.85206e-08 0.00729405
11.84 -8.8157e-08 0.00727691
11.86 -8.77953e-08 0.00725981
11.88 -8.74356e-08 0.00724275
11.9 -8.70779e-08 0.00722573
11.92 -8.67222e-08 0.00720875
11.94 -8.63684e-08 0.00719181
11.96 -8.60166e-08 0.00717491
11.98 -8.56666e-08 0.00715805
12 -8.53186e-08 0.00714124
12.02 -8.49725e-08 0.00712446
12.04 -8.46283e-08 0.00710772
12.06 -8.42859e-08 0.00709102
12.08 -8.39454e-08 0.00707436
12.1 -8.36067e-08 0.00705774
12.12 -8.32698e-08 0.00704116
12.14 -8.29348e-08 0.00702462
12.16 -8.26016e-08 0.00700813
12.18 -8.22701e-08 0.00699167
12.2 -8.19405e-08 0.00697525
12.22 -8.16125e-08 0.00695887
12.24 -8.12864e-08 0.00694253
12.26 -8.0962e-08 0.00692624
12.28 -8.06393e-08 0.00690998
12.3 -8.03183e-08 0.00689376
12.32 -7.9999e-08 0.00687759
12.34 -7.96814e-08 0.00686145
12.36 -7.93655e-08 0.00684535
12.38 -7.90513e-08 0.0068293
12.4 -7.87387e-08 0.00681328
12.42 -7.84278e-08 0.00679731
12.44 -7.81185e-08 0.00678137
12.46 -7.78108e-08 0.00676548
12.48 -7.75047e-08 0.00674962
12.5 -7.72002e-08 0.0067338
12.52 -7.68973e-08 0.00671803
12.54 -7.6596e-08 0.00670229
12.56 -7.62963e-08 0.0066866
12.58 -7.59981e-08 0.00667094
12.6 -7.57014e-08 0.00665532
12.62 -7.54063e-08 0.00663975
12.64 -7.51127e-08 0.00662421
12.66 -7.48206e-08 0.00660872
12.68 -7.45301e-08 0.00659326
12.7 -7.4241e-08 0.00657784
12.72 -7.39534e-08 0.00656246
12.74 -7.36673e-08 0.00654713
12.76 -7.33826e-08 0.00653183
12.78 -7.30994e-08 0.00651657
12.8 -7.28176e-08 0.00650135
12.82 -7.25373e-08 0.00648617
12.84 -7.22584e-08 0.00647103
12.86 -7.19809e-08 0.00645593
12.88 -7.17048e-08 0.00644086
12.9 -7.14301e-08 0.00642584
12.92 -7.11568e-08 0.00641086
12.94 -7.08849e-08 0.00639591
12.96 -7.06143e-08 0.00638101
12.98 -7.03451e-08 0.00636614
13 -7.00773e-08 0.00635131
13.02 -6.98107e-08 0.00633652
13.04 -6.95456e-08 0.00632177
13.06 -6.92817e-08 0.00630706
13.08 -6.90192e-08 0.00629239
13.1 -6.87579e-08 0.00627775
13.12 -6.8498e-08 0.00626316
13.14 -6.82394e-08 0.0062486
13.16 -6.7982e-08 0.00623408
13.18 -6.77259e-08 0.0062196
13.2 -6.74711e-08 0.00620516
13.22 -6.72175e-08 0.00619075
13.24 -6.69652e-08 0.00617639
13.26 -6.67141e-08 0.00616206
13.28 -6.64643e-08 0.00614777
13.3 -6.62156e-08 0.00613351
13.32 -6.59682e-08 0.0061193
13.34 -6.5722e-08 0.00610512
13.36 -6.5477e-08 0.00609098
13.38 -6.52332e-08 0.00607688
13.4 -6.49906e-08 0.00606282
13.42 -6.47492e-08 0.00604879
13.44 -6.45089e-08 0.0060348
13.46 -6.42698e-08 0.00602085
13.48 -6.40318e-08 0.00600693
13.5 -6.3795e-08 0.00599306
13.52 -6.35594e-08 0.00597922
13.54 -6.33248e-08 0.00596541
13.56 -6.30914e-08 0.00595164
13.58 -6.28591e-08 0.00593791
13.6 -6.2628e-08 0.00592422
13.62 -6.23979e-08 0.00591056
13.64 -6.21689e-08 0.00589694
13.66 -6.19411e-08 0.00588336
13.68 -6.17143e-08 0.00586981
13.7 -6.14886e-08 0.0058563
13.72 -6.12639e-08 0.00584283
13.74 -6.10404e-08 0.00582939
13.76 -6.08178e-08 0.00581599
13.78 -6.05964e-08 0.00580262
13.8 -6.0376e-08 0.00578929
13.82 -6.01566e-08 0.005776
13.84 -5.99382e-08 0.00576274
13.86 -5.97209e-08 0.00574951
13.88 -5.95046e-08 0.00573633
13.9 -5.92893e-08 0.00572317
13.92 -5.90751e-08 0.00571006
13.94 -5.88618e-08 0.00569697
13.96 -5.86495e-08 0.00568393
13.98 -5.84382e-08 0.00567092
14 -5.82279e-08 0.00565794
14.02 -5.80186e-08 0.005645
14.04 -5.78102e-08 0.00563209
14.06 -5.76028e-08 0.00561922
14.08 -5.73964e-08 0.00560638
14.1 -5.71909e-08 0.00559358
14.12 -5.69863e-08 0.00558081
14.14 -5.67827e-08 0.00556808
14.16 -5.65801e-08 0.00555538
14.18 -5.63784e-08 0.00554272
14.2 -5.61776e-08 0.00553009
14.22 -5.59777e-08 0.00551749
14.24 -5.57787e-08 0.00550493
14.26 -5.55807e-08 0.0054924
14.28 -5.53835e-08 0.0054799
14.3 -5.51873e-08 0.00546744
14.32 -5.49919e-08 0.00545502
14.34 -5.47974e-08 0.00544262
14.36 -5.46038e-08 0.00543026
14.38 -5.44111e-08 0.00541793
14.4 -5.42193e-08 0.00540564
14.42 -5.40283e-08 0.00539338
14.44 -5.38382e-08 0.00538115
14.46 -5.36489e-08 0.00536896
14.48 -5.34605e-08 0.00535679
14.5 -5.3273e-08 0.00534467
14.52 -5.30862e-08 0.00533257
14.54 -5.29004e-08 0.00532051
14.56 -5.27153e-08 0.00530848
14.58 -5.25311e-08 0.00529648
14.6 -5.23477e-08 0.00528451
14.62 -5.21651e-08 0.00527258
14.64 -5.19833e-08 0.00526068
14.66 -5.18024e-08 0.00524881
14.68 -5.16222e-08 0.00523697
14.7 -5.14429e-08 0.00522516
14.72 -5.12643e-08 0.00521339
14.74 -5.10865e-08 0.00520165
14.76 -5.09095e-08 0.00518994
14.78 -5.07333e-08 0.00517826
14.8 -5.05579e-08 0.00516661
14.82 -5.03832e-08 0.005155
14.84 -5.02093e-08 0.00514341
14.86 -5.00362e-08 0.00513186
14.88 -4.98638e-08 0.00512034
14.9 -4.96922e-08 0.00510884
14.92 -4.95213e-08 0.00509738
14.94 -4.93512e-08 0.00508596
14.96 -4.91818e-08 0.00507456
14.98 -4.90132e-08 0.00506319
15 -4.88453e-08 0.00505185
15.02 -4.86781e-08 0.00504055
15.04 -4.85116e-08 0.00502927
15.06 -4.83459e-08 0.00501802
15.08 -4.81809e-08 0.00500681
15.1 -4.80166e-08 0.00499562
15.12 -4.7853e-08 0.00498447
15.14 -4.76901e-08 0.00497334
15.16 -4.75279e-08 0.00496225
15.18 -4.73664e-08 0.00495118
15.2 -4.72056e-08 0.00494014
15.22 -4.70455e-08 0.00492914
15.24 -4.6886e-08 0.00491816
15.26 -4.67273e-08 0.00490721
15.28 -4.65692e-08 0.00489629
15.3 -4.64118e-08 0.00488541
15.32 -4.62551e-08 0.00487455
15.34 -4.60991e-08 0.00486372
15.36 -4.59437e-08 0.00485291
15.38 -4.57889e-08 0.00484214
15.4 -4.56349e-08 0.0048314
15.42 -4.54814e-08 0.00482068
15.44 -4.53287e-08 0.00481
15.46 -4.51765e-08 0.00479934
15.48 -4.5025e-08 0.00478871
15.5 -4.48742e-08 0.00477811
15.52 -4.4724e-08 0.00476754
15.54 -4.45744e-08 0.00475699
15.56 -4.44254e-08 0.00474648
15.58 -4.42771e-08 0.00473599
15.6 -4.41294e-08 0.00472553
15.62 -4.39823e-08 0.0047151
15.64 -4.38358e-08 0.0047047
15.66 -4.36899e-08 0.00469432
15.68 -4.35447e-08 0.00468397
15.7 -4.34e-08 0.00467365
15.72 -4.3256e-08 0.00466336
15.74 -4.31125e-08 0.00465309
15.76 -4.29696e-08 0.00464285
15.78 -4.28274e-08 0.00463264
15.8 -4.26857e-08 0.00462246
15.82 -4.25446e-08 0.0046123
15.84 -4.24041e-08 0.00460217
15.86 -4.22641e-08 0.00459207
15.88 -4.21248e-08 0.00458199
15.9 -4.1986e-08 0.00457194
15.92 -4.18478e-08 0.00456192
15.94 -4.17101e-08 0.00455192
15.96 -4.1573e-08 0.00454195
15.98 -4.14365e-08 0.00453201
16 -4.13005e-08 0.00452209
16.02 -4.11651e-08 0.0045122
16.04 -4.10302e-08 0.00450234
16.06 -4.08959e-08 0.0044925
16.08 -4.07622e-08 0.00448269
16.1 -4.0629e-08 0.0044729
16.12 -4.04963e-08 0.00446314
16.14 -4.03641e-08 0.00445341
16.16 -4.02325e-08 0.0044437
16.18 -4.01014e-08 0.00443401
16.2 -3.99709e-08 0.00442436
16.22 -3.98409e-08 0.00441472
16.24 -3.97114e-08 0.00440512
16.26 -3.95824e-08 0.00439554
16.28 -3.9454e-08 0.00438598
16.3 -3.9326e-08 0.00437645
16.32 -3.91986e-08 0.00436694
16.34 -3.90717e-08 0.00435746
16.36 -3.89453e-08 0.00434801
16.38 -3.88194e-08 0.00433858
16.4 -3.8694e-08 0.00432917
16.42 -3.85691e-08 0.00431979
16.44 -3.84447e-08 0.00431043
16.46 -3.83208e-08 0.0043011
16.48 -3.81974e-08 0.00429179
16.5 -3.80744e-08 0.00428251
16.52 -3.7952e-08 0.00427325
16.54 -3.783e-08 0.00426401
16.56 -3.77086e-08 0.0042548
16.58 -3.75876e-08 0.00424562
16.6 -3.74671e-08 0.00423645
16.62 -3.7347e-08 0.00422732
16.64 -3.72275e-08 0.0042182
16.66 -3.71084e-08 0.00420911
16.68 -3.69898e-08 0.00420004
16.7 -3.68716e-08 0.004191
16.72 -3.67539e-08 0.00418198
16.74 -3.66367e-08 0.00417299
16.76 -3.65199e-08 0.00416401
16.78 -3.64036e-08 0.00415506
16.8 -3.62877e-08 0.00414614
16.82 -3.61723e-08 0.00413723
16.84 -3.60574e-08 0.00412836
16.86 -3.59429e-08 0.0041195
16.88 -3.58288e-08 0.00411067
16.9 -3.57152e-08 0.00410186
16.92 -3.5602e-08 0.00409307
16.94 -3.54893e-08 0.0040843
16.96 -3.53769e-08 0.00407556
16.98 -3.52651e-08 0.00406684
17 -3.51536e-08 0.00405815
17.02 -3.50426e-08 0.00404947
17.04 -3.4932e-08 0.00404082
17.06 -3.48219e-08 0.00403219
17.08 -3.47122e-08 0.00402358
17.1 -3.46028e-08 0.004015
17.12 -3.4494e-08 0.00400644
17.14 -3.43855e-08 0.0039979
17.16 -3.42774e-08 0.00398938
17.18 -3.41698e-08 0.00398088
17.2 -3.40626e-08 0.00397241
17.22 -3.39557e-08 0.00396395
17.24 -3.38493e-08 0.00395552
17.26 -3.37433e-08 0.00394711
17.28 -3.36377e-08 0.00393873
17.3 -3.35325e-08 0.00393036
17.32 -3.34277e-08 0.00392202
17.34 -3.33233e-08 0.00391369
17.36 -3.32193e-08 0.00390539
17.38 -3.31157e-08 0.00389711
17.4 -3.30124e-08 0.00388885
17.42 -3.29096e-08 0.00388062
17.44 -3.28071e-08 0.0038724
17.46 -3.27051e-08 0.0038642
17.48 -3.26034e-08 0.00385603
17.5 -3.25021e-08 0.00384788
17.52 -3.24012e-08 0.00383974
17.54 -3.23007e-08 0.00383163
17.56 -3.22005e-08 0.00382354
17.58 -3.21007e-08 0.00381547
17.6 -3.20013e-08 0.00380742
17.62 -3.19023e-08 0.00379939
17.64 -3.18036e-08 0.00379138
17.66 -3.17053e-08 0.00378339
17.68 -3.16074e-08 0.00377542
17.7 -3.15098e-08 0.00376748
17.72 -3.14126e-08 0.00375955
17.74 -3.13158e-08 0.00375164
17.76 -3.12193e-08 0.00374375
17.78 -3.11232e-08 0.00373589
17.8 -3.10274e-08 0.00372804
17.82 -3.0932e-08 0.00372021
17.84 -3.0837e-08 0.0037124
17.86 -3.07423e-08 0.00370462
17.88 -3.06479e-08 0.00369685
17.9 -3.05539e-08 0.0036891
17.92 -3.04602e-08 0.00368137
17.94 -3.03669e-08 0.00367366
17.96 -3.02739e-08 0.00366597
17.98 -3.01813e-08 0.0036583
18 -3.0089e-08 0.00365065
18.02 -2.99971e-08 0.00364302
18.04 -2.99054e-08 0.00363541
18.06 -2.98142e-08 0.00362781
18.08 -2.97232e-08 0.00362024
18.1 -2.96326e-08 0.00361269
18.12 -2.95423e-08 0.00360515
18.14 -2.94524e-08 0.00359763
18.16 -2.93627e-08 0.00359013
18.18 -2.92734e-08 0.00358266
18.2 -2.91845e-08 0.00357519
18.22 -2.90958e-08 0.00356775
18.24 -2.90075e-08 0.00356033
18.26 -2.89195e-08 0.00355293
18.28 -2.88318e-08 0.00354554
18.3 -2.87444e-08 0.00353817
18.32 -2.86573e-08 0.00353082
18.34 -2.85706e-08 0.00352349
18.36 -2.84841e-08 0.00351618
18.38 -2.8398e-08 0.00350889
18.4 -2.83122e-08 0.00350161
18.42 -2.82267e-08 0.00349435
18.44 -2.81415e-08 0.00348711
18.46 -2.80566e-08 0.00347989
18.48 -2.7972e-08 0.00347269
18.5 -2.78878e-08 0.00346551
18.52 -2.78038e-08 0.00345834
18.54 -2.77201e-08 0.00345119
18.56 -2.76367e-08 0.00344406
18.58 -2.75536e-08 0.00343694
18.6 -2.74709e-08 0.00342985
18.62 -2.73884e-08 0.00342277
18.64 -2.73062e-08 0.00341571
18.66 -2.72243e-08 0.00340866
18.68 -2.71427e-08 0.00340164
18.7 -2.70613e-08 0.00339463
18.72 -2.69803e-08 0.00338764
18.74 -2.68995e-08 0.00338066
18.76 -2.68191e-08 0.0033737
18.78 -2.67389e-08 0.00336676
18.8 -2.6659e-08 0.00335984
18.82 -2.65794e-08 0.00335294
18.84 -2.65001e-08 0.00334605
18.86 -2.6421e-08 0.00333918
18.88 -2.63422e-08 0.00333232
18.9 -2.62637e-08 0.00332548
18.92 -2.61855e-08 0.00331866
18.94 -2.61076e-08 0.00331186
18.96 -2.60299e-08 0.00330507
18.98 -2.59525e-08 0.0032983
19 -2.58754e-08 0.00329155
19.02 -2.57985e-08 0.00328481
19.04 -2.57219e-08 0.00327809
19.06 -2.56456e-08 0.00327139
19.08 -2.55696e-08 0.0032647
19.1 -2.54938e-08 0.00325803
19.12 -2.54182e-08 0.00325137
19.14 -2.5343e-08 0.00324473
19.16 -2.5268e-08 0.00323811
19.18 -2.51932e-08 0.0032315
19.2 -2.51188e-08 0.00322491
19.22 -2.50445e-08 0.00321834
19.24 -2.49706e-08 0.00321178
19.26 -2.48969e-08 0.00320524
19.28 -2.48234e-08 0.00319871
19.3 -2.47502e-08 0.0031922
19.32 -2.46773e-08 0.00318571
19.34 -2.46046e-08 0.00317923
19.36 -2.45321e-08 0.00317276
19.38 -2.44599e-08 0.00316632
19.4 -2.4388e-08 0.00315989
19.42 -2.43163e-08 0.00315347
19.44 -2.42448e-08 0.00314707
19.46 -2.41736e-08 0.00314068
19.48 -2.41027e-08 0.00313432
19.5 -2.40319e-08 0.00312796
19.52 -2.39615e-08 0.00312162
19.54 -2.38912e-08 0.0031153
19.56 -2.38212e-08 0.00310899
19.58 -2.37515e-08 0.0031027
19.6 -2.36819e-08 0.00309642
19.62 -2.36127e-08 0.00309016
19.64 -2.35436e-08 0.00308391
19.66 -2.34748e-08 0.00307768
19.68 -2.34062e-08 0.00307146
19.7 -2.33379e-08 0.00306526
19.72 -2.32698e-08 0.00305907
19.74 -2.32019e-08 0.0030529
19.76 -2.31342e-08 0.00304674
19.78 -2.30668e-08 0.0030406
19.8 -2.29996e-08 0.00303447
19.82 -2.29327e-08 0.00302836
19.84 -2.28659e-08 0.00302226
19.86 -2.27994e-08 0.00301618
19.88 -2.27331e-08 0.00301011
19.9 -2.2667e-08 0.00300405
19.92 -2.26012e-08 0.00299801
19.94 -2.25356e-08 0.00299199
19.96 -2.24702e-08 0.00298598
19.98 -2.2405e-08 0.00297998
20 -2.234e-08 0.002974
20.02 -2.22753e-08 0.00296803
20.04 -2.22107e-08 0.00296207
20.06 -2.21464e-08 0.00295613
20.08 -2.20823e-08 0.00295021
20.1 -2.20185e-08 0.0029443
20.12 -2.19548e-08 0.0029384
20.14 -2.18913e-08 0.00293251
20.16 -2.18281e-08 0.00292665
20.18 -2.1765e-08 0.00292079
20.2 -2.17022e-08 0.00291495
20.22 -2.16396e-08 0.00290912
20.24 -2.15772e-08 0.00290331
20.26 -2.1515e-08 0.00289751
20.28 -2.1453e-08 0.00289172
20.3 -2.13912e-08 0.00288595
20.32 -2.13296e-08 0.00288019
20.34 -2.12682e-08 0.00287444
20.36 -2.12071e-08 0.00286871
20.38 -2.11461e-08 0.00286299
20.4 -2.10853e-08 0.00285729
20.42 -2.10247e-08 0.0028516
20.44 -2.09644e-08 0.00284592
20.46 -2.09042e-08 0.00284025
20.48 -2.08442e-08 0.0028346
20.5 -2.07844e-08 0.00282896
20.52 -2.07248e-08 0.00282334
20.54 -2.06655e-08 0.00281773
20.56 -2.06063e-08 0.00281213
20.58 -2.05473e-08 0.00280654
20.6 -2.04885e-08 0.00280097
20.62 -2.04298e-08 0.00279541
20.64 -2.03714e-08 0.00278987
20.66 -2.03132e-08 0.00278433
20.68 -2.02552e-08 0.00277881
20.7 -2.01973e-08 0.00277331
20.72 -2.01396e-08 0.00276781
20.74 -2.00822e-08 0.00276233
20.76 -2.00249e-08 0.00275686
20.78 -1.99678e-08 0.00275141