Title=" Lid Driven Flow"
VARIABLES="X","Y","U","V","psi","xi"
ZONE T= "BOX", I= 201, J=201, F=POINT
0 0 0 0 -227.575 0
0.005 0 0 0 0 0
0.01 0 0 0 0 0
0.015 0 0 0 0 -332.391
0.02 0 0 0 0 -266.684
0.025 0 0 0 0 -216.66
0.03 0 0 0 0 -180.126
0.035 0 0 0 0 -153.444
0.04 0 0 0 0 -133.692
0.045 0 0 0 0 -118.798
0.05 0 0 0 0 -107.337
0.055 0 0 0 0 -98.3352
0.06 0 0 0 0 -91.1259
0.065 0 0 0 0 -85.2456
0.07 0 0 0 0 -80.3685
0.075 0 0 0 0 -76.2616
0.08 0 0 0 0 -72.7559
0.085 0 0 0 0 -69.7263
0.09 0 0 0 0 -67.0789
0.095 0 0 0 0 -64.7418
0.1 0 0 0 0 -62.6593
0.105 0 0 0 0 -60.7877
0.11 0 0 0 0 -59.0917
0.115 0 0 0 0 -57.5432
0.12 0 0 0 0 -56.1191
0.125 0 0 0 0 -54.8002
0.13 0 0 0 0 -53.5709
0.135 0 0 0 0 -52.4178
0.14 0 0 0 0 -51.3299
0.145 0 0 0 0 -50.2977
0.15 0 0 0 0 -49.3133
0.155 0 0 0 0 -48.3699
0.16 0 0 0 0 -47.4619
0.165 0 0 0 0 -46.5842
0.17 0 0 0 0 -45.7329
0.175 0 0 0 0 -44.9043
0.18 0 0 0 0 -44.0956
0.185 0 0 0 0 -43.3042
0.19 0 0 0 0 -42.5281
0.195 0 0 0 0 -41.7656
0.2 0 0 0 0 -41.0153
0.205 0 0 0 0 -40.276
0.21 0 0 0 0 -39.5467
0.215 0 0 0 0 -38.8269
0.22 0 0 0 0 -38.1159
0.225 0 0 0 0 -37.4134
0.23 0 0 0 0 -36.7191
0.235 0 0 0 0 -36.0329
0.24 0 0 0 0 -35.3546
0.245 0 0 0 0 -34.6843
0.25 0 0 0 0 -34.0221
0.255 0 0 0 0 -33.3681
0.26 0 0 0 0 -32.7224
0.265 0 0 0 0 -32.0852
0.27 0 0 0 0 -31.4568
0.275 0 0 0 0 -30.8375
0.28 0 0 0 0 -30.2273
0.285 0 0 0 0 -29.6267
0.29 0 0 0 0 -29.0358
0.295 0 0 0 0 -28.4549
0.3 0 0 0 0 -27.8842
0.305 0 0 0 0 -27.3241
0.31 0 0 0 0 -26.7746
0.315 0 0 0 0 -26.2361
0.32 0 0 0 0 -25.7087
0.325 0 0 0 0 -25.1926
0.33 0 0 0 0 -24.688
0.335 0 0 0 0 -24.195
0.34 0 0 0 0 -23.7138
0.345 0 0 0 0 -23.2444
0.35 0 0 0 0 -22.787
0.355 0 0 0 0 -22.3416
0.36 0 0 0 0 -21.9083
0.365 0 0 0 0 -21.4871
0.37 0 0 0 0 -21.0781
0.375 0 0 0 0 -20.6812
0.38 0 0 0 0 -20.2964
0.385 0 0 0 0 -19.9238
0.39 0 0 0 0 -19.5633
0.395 0 0 0 0 -19.2147
0.4 0 0 0 0 -18.8781
0.405 0 0 0 0 -18.5534
0.41 0 0 0 0 -18.2404
0.415 0 0 0 0 -17.9392
0.42 0 0 0 0 -17.6494
0.425 0 0 0 0 -17.3711
0.43 0 0 0 0 -17.1041
0.435 0 0 0 0 -16.8483
0.44 0 0 0 0 -16.6034
0.445 0 0 0 0 -16.3695
0.45 0 0 0 0 -16.1462
0.455 0 0 0 0 -15.9334
0.46 0 0 0 0 -15.731
0.465 0 0 0 0 -15.5388
0.47 0 0 0 0 -15.3566
0.475 0 0 0 0 -15.1842
0.48 0 0 0 0 -15.0215
0.485 0 0 0 0 -14.8682
0.49 0 0 0 0 -14.7242
0.495 0 0 0 0 -14.5894
0.5 0 0 0 0 -14.4634
0.505 0 0 0 0 -14.3461
0.51 0 0 0 0 -14.2374
0.515 0 0 0 0 -14.137
0.52 0 0 0 0 -14.0448
0.525 0 0 0 0 -13.9606
0.53 0 0 0 0 -13.8841
0.535 0 0 0 0 -13.8153
0.54 0 0 0 0 -13.7539
0.545 0 0 0 0 -13.6998
0.55 0 0 0 0 -13.6527
0.555 0 0 0 0 -13.6125
0.56 0 0 0 0 -13.5791
0.565 0 0 0 0 -13.5521
0.57 0 0 0 0 -13.5316
0.575 0 0 0 0 -13.5173
0.58 0 0 0 0 -13.509
0.585 0 0 0 0 -13.5067
0.59 0 0 0 0 -13.51
0.595 0 0 0 0 -13.5189
0.6 0 0 0 0 -13.5332
0.605 0 0 0 0 -13.5528
0.61 0 0 0 0 -13.5775
0.615 0 0 0 0 -13.6072
0.62 0 0 0 0 -13.6417
0.625 0 0 0 0 -13.6809
0.63 0 0 0 0 -13.7247
0.635 0 0 0 0 -13.7729
0.64 0 0 0 0 -13.8254
0.645 0 0 0 0 -13.882
0.65 0 0 0 0 -13.9428
0.655 0 0 0 0 -14.0075
0.66 0 0 0 0 -14.0761
0.665 0 0 0 0 -14.1485
0.67 0 0 0 0 -14.2245
0.675 0 0 0 0 -14.3042
0.68 0 0 0 0 -14.3873
0.685 0 0 0 0 -14.474
0.69 0 0 0 0 -14.5641
0.695 0 0 0 0 -14.6575
0.7 0 0 0 0 -14.7544
0.705 0 0 0 0 -14.8546
0.71 0 0 0 0 -14.9581
0.715 0 0 0 0 -15.065
0.72 0 0 0 0 -15.1754
0.725 0 0 0 0 -15.2892
0.73 0 0 0 0 -15.4067
0.735 0 0 0 0 -15.5278
0.74 0 0 0 0 -15.6528
0.745 0 0 0 0 -15.7819
0.75 0 0 0 0 -15.9152
0.755 0 0 0 0 -16.0529
0.76 0 0 0 0 -16.1955
0.765 0 0 0 0 -16.3432
0.77 0 0 0 0 -16.4965
0.775 0 0 0 0 -16.6558
0.78 0 0 0 0 -16.8216
0.785 0 0 0 0 -16.9945
0.79 0 0 0 0 -17.1753
0.795 0 0 0 0 -17.3646
0.8 0 0 0 0 -17.5634
0.805 0 0 0 0 -17.7726
0.81 0 0 0 0 -17.9933
0.815 0 0 0 0 -18.2267
0.82 0 0 0 0 -18.4742
0.825 0 0 0 0 -18.7374
0.83 0 0 0 0 -19.018
0.835 0 0 0 0 -19.3178
0.84 0 0 0 0 -19.639
0.845 0 0 0 0 -19.984
0.85 0 0 0 0 -20.3554
0.855 0 0 0 0 -20.7562
0.86 0 0 0 0 -21.1897
0.865 0 0 0 0 -21.6594
0.87 0 0 0 0 -22.1696
0.875 0 0 0 0 -22.7246
0.88 0 0 0 0 -23.3298
0.885 0 0 0 0 -23.9906
0.89 0 0 0 0 -24.7135
0.895 0 0 0 0 -25.5058
0.9 0 0 0 0 -26.3755
0.905 0 0 0 0 -27.332
0.91 0 0 0 0 -28.3857
0.915 0 0 0 0 -29.549
0.92 0 0 0 0 -30.8362
0.925 0 0 0 0 -32.264
0.93 0 0 0 0 -33.8525
0.935 0 0 0 0 -35.6263
0.94 0 0 0 0 -37.6157
0.945 0 0 0 0 -39.859
0.95 0 0 0 0 -42.4059
0.955 0 0 0 0 -45.3224
0.96 0 0 0 0 -48.6989
0.965 0 0 0 0 -52.6632
0.97 0 0 0 0 -57.4027
0.975 0 0 0 0 -63.2042
0.98 0 0 0 0 -70.53
0.985 0 0 0 0 -80.1783
0.99 0 0 0 0 -93.6451
0.995 0 0 0 0 -114.165
1 0 0 0 0 -149.586
0 0.005 0 0 0 0
0.005 0.005 0 0 0 0
0.01 0.005 0 0 0 0.00147743
0.015 0.005 0 0 0 2.88733e-05
0.02 0.005 0 0 0 -0.00562695
0.025 0.005 0 0 0 -0.0152
0.03 0.005 0 0 0 -0.0279572
0.035 0.005 0 0 0 -0.0431105
0.04 0.005 0 0 0 -0.0599373
0.045 0.005 0 0 0 -0.0778104
0.05 0.005 0 0 0 -0.096197
0.055 0.005 0 0 0 -0.11465
0.06 0.005 0 0 0 -0.132797
0.065 0.005 0 0 0 -0.150331
0.07 0.005 0 0 0 -0.167004
0.075 0.005 0 0 0 -0.182614
0.08 0.005 0 0 0 -0.197005
0.085 0.005 0 0 0 -0.210058
0.09 0.005 0 0 0 -0.221683
0.095 0.005 0 0 0 -0.23182
0.1 0.005 0 0 0 -0.240433
0.105 0.005 0 0 0 -0.247503
0.11 0.005 0 0 0 -0.253028
0.115 0.005 0 0 0 -0.257018
0.12 0.005 0 0 0 -0.259492
0.125 0.005 0 0 0 -0.260478
0.13 0.005 0 0 0 -0.260005
0.135 0.005 0 0 0 -0.258105
0.14 0.005 0 0 0 -0.254812
0.145 0.005 0 0 0 -0.250156
0.15 0.005 0 0 0 -0.244164
0.155 0.005 0 0 0 -0.236861
0.16 0.005 0 0 0 -0.228263
0.165 0.005 0 0 0 -0.218384
0.17 0.005 0 0 0 -0.207229
0.175 0.005 0 0 0 -0.194796
0.18 0.005 0 0 0 -0.181077
0.185 0.005 0 0 0 -0.166059
0.19 0.005 0 0 0 -0.149718
0.195 0.005 0 0 0 -0.132029
0.2 0.005 0 0 0 -0.112959
0.205 0.005 0 0 0 -0.0924687
0.21 0.005 0 0 0 -0.0705173
0.215 0.005 0 0 0 -0.0470591
0.22 0.005 0 0 0 -0.0220462
0.225 0.005 0 0 0 0.00457148
0.23 0.005 0 0 0 0.0328448
0.235 0.005 0 0 0 0.0628249
0.24 0.005 0 0 0 0.0945623
0.245 0.005 0 0 0 0.128106
0.25 0.005 0 0 0 0.163504
0.255 0.005 0 0 0 0.2008
0.26 0.005 0 0 0 0.240035
0.265 0.005 0 0 0 0.281245
0.27 0.005 0 0 0 0.324462
0.275 0.005 0 0 0 0.369713
0.28 0.005 0 0 0 0.417019
0.285 0.005 0 0 0 0.466392
0.29 0.005 0 0 0 0.51784
0.295 0.005 0 0 0 0.571362
0.3 0.005 0 0 0 0.626949
0.305 0.005 0 0 0 0.684582
0.31 0.005 0 0 0 0.744235
0.315 0.005 0 0 0 0.805871
0.32 0.005 0 0 0 0.869441
0.325 0.005 0 0 0 0.93489
0.33 0.005 0 0 0 1.00215
0.335 0.005 0 0 0 1.07113
0.34 0.005 0 0 0 1.14175
0.345 0.005 0 0 0 1.21391
0.35 0.005 0 0 0 1.28748
0.355 0.005 0 0 0 1.36233
0.36 0.005 0 0 0 1.43833
0.365 0.005 0 0 0 1.51533
0.37 0.005 0 0 0 1.59314
0.375 0.005 0 0 0 1.6716
0.38 0.005 0 0 0 1.75051
0.385 0.005 0 0 0 1.82967
0.39 0.005 0 0 0 1.90885
0.395 0.005 0 0 0 1.98785
0.4 0.005 0 0 0 2.0664
0.405 0.005 0 0 0 2.14428
0.41 0.005 0 0 0 2.22121
0.415 0.005 0 0 0 2.29693
0.42 0.005 0 0 0 2.37117
0.425 0.005 0 0 0 2.44364
0.43 0.005 0 0 0 2.51406
0.435 0.005 0 0 0 2.58213
0.44 0.005 0 0 0 2.64756
0.445 0.005 0 0 0 2.71005
0.45 0.005 0 0 0 2.7693
0.455 0.005 0 0 0 2.82502
0.46 0.005 0 0 0 2.8769
0.465 0.005 0 0 0 2.92466
0.47 0.005 0 0 0 2.96801
0.475 0.005 0 0 0 3.00667
0.48 0.005 0 0 0 3.04038
0.485 0.005 0 0 0 3.06888
0.49 0.005 0 0 0 3.09191
0.495 0.005 0 0 0 3.10925
0.5 0.005 0 0 0 3.12068
0.505 0.005 0 0 0 3.12601
0.51 0.005 0 0 0 3.12507
0.515 0.005 0 0 0 3.11768
0.52 0.005 0 0 0 3.10374
0.525 0.005 0 0 0 3.08312
0.53 0.005 0 0 0 3.05574
0.535 0.005 0 0 0 3.02157
0.54 0.005 0 0 0 2.98056
0.545 0.005 0 0 0 2.93274
0.55 0.005 0 0 0 2.87813
0.555 0.005 0 0 0 2.81682
0.56 0.005 0 0 0 2.7489
0.565 0.005 0 0 0 2.67451
0.57 0.005 0 0 0 2.59382
0.575 0.005 0 0 0 2.50704
0.58 0.005 0 0 0 2.4144
0.585 0.005 0 0 0 2.31618
0.59 0.005 0 0 0 2.21267
0.595 0.005 0 0 0 2.10421
0.6 0.005 0 0 0 1.99116
0.605 0.005 0 0 0 1.87392
0.61 0.005 0 0 0 1.7529
0.615 0.005 0 0 0 1.62853
0.62 0.005 0 0 0 1.50129
0.625 0.005 0 0 0 1.37165
0.63 0.005 0 0 0 1.24012
0.635 0.005 0 0 0 1.10719
0.64 0.005 0 0 0 0.973394
0.645 0.005 0 0 0 0.839256
0.65 0.005 0 0 0 0.705302
0.655 0.005 0 0 0 0.572062
0.66 0.005 0 0 0 0.440058
0.665 0.005 0 0 0 0.309805
0.67 0.005 0 0 0 0.181807
0.675 0.005 0 0 0 0.0565499
0.68 0.005 0 0 0 -0.0654967
0.685 0.005 0 0 0 -0.183887
0.69 0.005 0 0 0 -0.298199
0.695 0.005 0 0 0 -0.408042
0.7 0.005 0 0 0 -0.513053
0.705 0.005 0 0 0 -0.612905
0.71 0.005 0 0 0 -0.707303
0.715 0.005 0 0 0 -0.795991
0.72 0.005 0 0 0 -0.878752
0.725 0.005 0 0 0 -0.955406
0.73 0.005 0 0 0 -1.02581
0.735 0.005 0 0 0 -1.08987
0.74 0.005 0 0 0 -1.14753
0.745 0.005 0 0 0 -1.19875
0.75 0.005 0 0 0 -1.24356
0.755 0.005 0 0 0 -1.28201
0.76 0.005 0 0 0 -1.31418
0.765 0.005 0 0 0 -1.3402
0.77 0.005 0 0 0 -1.36021
0.775 0.005 0 0 0 -1.3744
0.78 0.005 0 0 0 -1.38296
0.785 0.005 0 0 0 -1.38612
0.79 0.005 0 0 0 -1.38413
0.795 0.005 0 0 0 -1.37726
0.8 0.005 0 0 0 -1.36577
0.805 0.005 0 0 0 -1.34995
0.81 0.005 0 0 0 -1.33011
0.815 0.005 0 0 0 -1.30654
0.82 0.005 0 0 0 -1.27954
0.825 0.005 0 0 0 -1.24942
0.83 0.005 0 0 0 -1.21647
0.835 0.005 0 0 0 -1.181
0.84 0.005 0 0 0 -1.14329
0.845 0.005 0 0 0 -1.10361
0.85 0.005 0 0 0 -1.06224
0.855 0.005 0 0 0 -1.01943
0.86 0.005 0 0 0 -0.97542
0.865 0.005 0 0 0 -0.930442
0.87 0.005 0 0 0 -0.884707
0.875 0.005 0 0 0 -0.838413
0.88 0.005 0 0 0 -0.791741
0.885 0.005 0 0 0 -0.74486
0.89 0.005 0 0 0 -0.697924
0.895 0.005 0 0 0 -0.651074
0.9 0.005 0 0 0 -0.604441
0.905 0.005 0 0 0 -0.558149
0.91 0.005 0 0 0 -0.512315
0.915 0.005 0 0 0 -0.467053
0.92 0.005 0 0 0 -0.422484
0.925 0.005 0 0 0 -0.378731
0.93 0.005 0 0 0 -0.335934
0.935 0.005 0 0 0 -0.294251
0.94 0.005 0 0 0 -0.253866
0.945 0.005 0 0 0 -0.214998
0.95 0.005 0 0 0 -0.177908
0.955 0.005 0 0 0 -0.142907
0.96 0.005 0 0 0 -0.110366
0.965 0.005 0 0 0 -0.0807169
0.97 0.005 0 0 0 -0.0544628
0.975 0.005 0 0 0 -0.0321664
0.98 0.005 0 0 0 -0.0144308
0.985 0.005 0 0 0 -0.00184185
0.99 0.005 0 0 0 0.0051673
0.995 0.005 0 0 0 0.00662309
1 0.005 0 0 0 0.00368529
0 0.01 0 0 0.00368529 0
0.005 0.01 0 0 0 0.00147743
0.01 0.01 -4.13709e-08 3.60917e-08 -1.84688e-08 -0.00292409
0.015 0.01 1.29806e-05 -8.88056e-06 -3.61763e-10 -0.00732505
0.02 0.01 4.23986e-05 -1.90362e-05 7.03378e-08 -0.0132913
0.025 0.01 8.7315e-05 -2.79128e-05 1.90004e-07 -0.0213181
0.03 0.01 0.000145231 -3.48877e-05 3.49475e-07 -0.031333
0.035 0.01 0.000213222 -3.99741e-05 5.38897e-07 -0.0430142
0.04 0.01 0.000288424 -4.33733e-05 7.4924e-07 -0.0559543
0.045 0.01 0.000368234 -4.53222e-05 9.72662e-07 -0.069738
0.05 0.01 0.000450356 -4.60459e-05 1.2025e-06 -0.0839763
0.055 0.01 0.000532814 -4.57455e-05 1.43317e-06 -0.0983202
0.06 0.01 0.000613927 -4.45968e-05 1.66002e-06 -0.112465
0.065 0.01 0.000692286 -4.2753e-05 1.87921e-06 -0.126149
0.07 0.01 0.000766724 -4.03471e-05 2.08762e-06 -0.139151
0.075 0.01 0.000836289 -3.74945e-05 2.28276e-06 -0.151287
0.08 0.01 0.00090022 -3.42957e-05 2.46266e-06 -0.162408
0.085 0.01 0.000957926 -3.08371e-05 2.62582e-06 -0.172394
0.09 0.01 0.00100896 -2.71932e-05 2.77114e-06 -0.181151
0.095 0.01 0.00105299 -2.34272e-05 2.89787e-06 -0.188608
0.1 0.01 0.00108982 -1.95921e-05 3.00553e-06 -0.194716
0.105 0.01 0.00111931 -1.57317e-05 3.09391e-06 -0.19944
0.11 0.01 0.00114141 -1.18812e-05 3.16298e-06 -0.20276
0.115 0.01 0.00115613 -8.06789e-06 3.21285e-06 -0.204669
0.12 0.01 0.00116352 -4.31189e-06 3.24379e-06 -0.205166
0.125 0.01 0.00116368 -6.26841e-07 3.25611e-06 -0.204258
0.13 0.01 0.00115671 2.97952e-06 3.2502e-06 -0.201958
0.135 0.01 0.00114272 6.50469e-06 3.22645e-06 -0.19828
0.14 0.01 0.00112185 9.95071e-06 3.18529e-06 -0.19324
0.145 0.01 0.00109421 1.33236e-05 3.12709e-06 -0.186852
0.15 0.01 0.0010599 1.66327e-05 3.05219e-06 -0.179131
0.155 0.01 0.00101901 1.989e-05 2.9609e-06 -0.170088
0.16 0.01 0.000971607 2.31096e-05 2.85343e-06 -0.159731
0.165 0.01 0.000917733 2.63071e-05 2.72994e-06 -0.148063
0.17 0.01 0.000857399 2.94991e-05 2.59049e-06 -0.135085
0.175 0.01 0.000790587 3.27026e-05 2.43508e-06 -0.120789
0.18 0.01 0.000717253 3.59346e-05 2.26359e-06 -0.105166
0.185 0.01 0.00063732 3.92115e-05 2.07586e-06 -0.0882012
0.19 0.01 0.000550685 4.25491e-05 1.8716e-06 -0.069874
0.195 0.01 0.000457219 4.59618e-05 1.65049e-06 -0.0501603
0.2 0.01 0.000356769 4.94627e-05 1.4121e-06 -0.0290321
0.205 0.01 0.000249161 5.30632e-05 1.15597e-06 -0.00645791
0.21 0.01 0.000134202 5.67728e-05 8.81569e-07 0.0175967
0.215 0.01 1.16875e-05 6.05992e-05 5.88336e-07 0.0431683
0.22 0.01 -0.0001186 6.4548e-05 2.75668e-07 0.070295
0.225 0.01 -0.000256882 6.86228e-05 -5.70602e-08 0.0990156
0.23 0.01 -0.000403386 7.28251e-05 -4.10485e-07 0.129369
0.235 0.01 -0.000558336 7.71545e-05 -7.85245e-07 0.161394
0.24 0.01 -0.000721953 8.16085e-05 -1.18197e-06 0.195128
0.245 0.01 -0.000894448 8.6183e-05 -1.60128e-06 0.230605
0.25 0.01 -0.00107602 9.08716e-05 -2.04377e-06 0.267858
0.255 0.01 -0.00126685 9.56665e-05 -2.50998e-06 0.306916
0.26 0.01 -0.00146712 0.000100558 -3.00042e-06 0.347804
0.265 0.01 -0.00167695 0.000105535 -3.51556e-06 0.390542
0.27 0.01 -0.00189647 0.000110585 -4.05579e-06 0.435146
0.275 0.01 -0.00212577 0.000115694 -4.62145e-06 0.481625
0.28 0.01 -0.00236491 0.000120845 -5.21278e-06 0.529982
0.285 0.01 -0.00261392 0.000126022 -5.82997e-06 0.580214
0.29 0.01 -0.00287278 0.000131206 -6.47309e-06 0.632309
0.295 0.01 -0.00314145 0.000136377 -7.14214e-06 0.686248
0.3 0.01 -0.00341983 0.000141514 -7.837e-06 0.742005
0.305 0.01 -0.0037078 0.000146594 -8.55744e-06 0.799544
0.31 0.01 -0.00400517 0.000151595 -9.30312e-06 0.85882
0.315 0.01 -0.00431171 0.00015649 -1.00736e-05 0.919779
0.32 0.01 -0.00462716 0.000161253 -1.08683e-05 0.982356
0.325 0.01 -0.00495118 0.000165858 -1.16864e-05 1.04648
0.33 0.01 -0.00528338 0.000170277 -1.25271e-05 1.11206
0.335 0.01 -0.00562334 0.00017448 -1.33895e-05 1.17901
0.34 0.01 -0.00597056 0.000178437 -1.42723e-05 1.24722
0.345 0.01 -0.00632448 0.000182118 -1.51742e-05 1.31658
0.35 0.01 -0.00668451 0.000185493 -1.60939e-05 1.38696
0.355 0.01 -0.00704997 0.000188528 -1.70296e-05 1.45821
0.36 0.01 -0.00742014 0.000191194 -1.79797e-05 1.5302
0.365 0.01 -0.00779423 0.000193457 -1.89421e-05 1.60276
0.37 0.01 -0.00817141 0.000195287 -1.99148e-05 1.67573
0.375 0.01 -0.00855078 0.000196652 -2.08956e-05 1.74892
0.38 0.01 -0.00893139 0.000197521 -2.1882e-05 1.82215
0.385 0.01 -0.00931222 0.000197865 -2.28715e-05 1.89521
0.39 0.01 -0.00969223 0.000197654 -2.38614e-05 1.96791
0.395 0.01 -0.0100703 0.00019686 -2.48489e-05 2.04002
0.4 0.01 -0.0104453 0.000195457 -2.58309e-05 2.11133
0.405 0.01 -0.010816 0.000193421 -2.68043e-05 2.1816
0.41 0.01 -0.0111811 0.000190727 -2.7766e-05 2.2506
0.415 0.01 -0.0115395 0.000187356 -2.87126e-05 2.31809
0.42 0.01 -0.0118898 0.000183288 -2.96406e-05 2.38382
0.425 0.01 -0.0122306 0.000178509 -3.05466e-05 2.44754
0.43 0.01 -0.0125607 0.000173004 -3.14268e-05 2.50901
0.435 0.01 -0.0128787 0.000166764 -3.22778e-05 2.56797
0.44 0.01 -0.0131831 0.000159781 -3.30957e-05 2.62417
0.445 0.01 -0.0134727 0.000152053 -3.38769e-05 2.67735
0.45 0.01 -0.013746 0.00014358 -3.46176e-05 2.72728
0.455 0.01 -0.0140017 0.000134365 -3.53141e-05 2.77371
0.46 0.01 -0.0142385 0.000124417 -3.59627e-05 2.81639
0.465 0.01 -0.0144551 0.000113747 -3.65597e-05 2.85509
0.47 0.01 -0.01465 0.000102372 -3.71017e-05 2.88959
0.475 0.01 -0.0148222 9.03126e-05 -3.7585e-05 2.91968
0.48 0.01 -0.0149705 7.75938e-05 -3.80064e-05 2.94513
0.485 0.01 -0.0150936 6.42452e-05 -3.83626e-05 2.96577
0.49 0.01 -0.0151906 5.03009e-05 -3.86505e-05 2.9814
0.495 0.01 -0.0152603 3.57995e-05 -3.88673e-05 2.99186
0.5 0.01 -0.015302 2.07843e-05 -3.90103e-05 2.997
0.505 0.01 -0.0153148 5.30296e-06 -3.9077e-05 2.99668
0.51 0.01 -0.0152979 -1.05925e-05 -3.90652e-05 2.99078
0.515 0.01 -0.0152507 -2.68457e-05 -3.89729e-05 2.97921
0.52 0.01 -0.0151726 -4.33962e-05 -3.87986e-05 2.96189
0.525 0.01 -0.0150634 -6.01797e-05 -3.85409e-05 2.93876
0.53 0.01 -0.0149226 -7.71281e-05 -3.81987e-05 2.90979
0.535 0.01 -0.0147501 -9.417e-05 -3.77715e-05 2.87495
0.54 0.01 -0.0145459 -0.000111231 -3.7259e-05 2.83428
0.545 0.01 -0.01431 -0.000128234 -3.66612e-05 2.7878
0.55 0.01 -0.0140429 -0.000145099 -3.59787e-05 2.73556
0.555 0.01 -0.0137447 -0.000161744 -3.52122e-05 2.67767
0.56 0.01 -0.0134161 -0.000178088 -3.43632e-05 2.61423
0.565 0.01 -0.0130578 -0.000194047 -3.34333e-05 2.54537
0.57 0.01 -0.0126706 -0.000209537 -3.24247e-05 2.47126
0.575 0.01 -0.0122554 -0.000224474 -3.134e-05 2.39209
0.58 0.01 -0.0118134 -0.000238776 -3.0182e-05 2.30806
0.585 0.01 -0.0113458 -0.000252361 -2.89541e-05 2.21942
0.59 0.01 -0.0108541 -0.000265153 -2.76603e-05 2.12642
0.595 0.01 -0.0103399 -0.000277074 -2.63045e-05 2.02935
0.6 0.01 -0.00980465 -0.000288052 -2.48914e-05 1.92851
0.605 0.01 -0.0092503 -0.000298022 -2.34258e-05 1.82422
0.61 0.01 -0.00867871 -0.000306919 -2.1913e-05 1.71683
0.615 0.01 -0.00809188 -0.000314686 -2.03584e-05 1.6067
0.62 0.01 -0.00749192 -0.000321275 -1.87678e-05 1.4942
0.625 0.01 -0.006881 -0.00032664 -1.71473e-05 1.37972
0.63 0.01 -0.00626137 -0.000330745 -1.55031e-05 1.26366
0.635 0.01 -0.00563534 -0.000333564 -1.38414e-05 1.14644
0.64 0.01 -0.00500524 -0.000335074 -1.21689e-05 1.02846
0.645 0.01 -0.00437347 -0.000335266 -1.04921e-05 0.910157
0.65 0.01 -0.00374238 -0.000334137 -8.81767e-06 0.791945
0.655 0.01 -0.00311438 -0.000331694 -7.1521e-06 0.674249
0.66 0.01 -0.00249182 -0.000327954 -5.50199e-06 0.557491
0.665 0.01 -0.00187703 -0.00032294 -3.87376e-06 0.442083
0.67 0.01 -0.00127229 -0.000316689 -2.27371e-06 0.328432
0.675 0.01 -0.000679807 -0.000309242 -7.07936e-07 0.216932
0.68 0.01 -0.000101711 -0.000300652 8.17714e-07 0.107967
0.685 0.01 0.000459962 -0.000290978 2.29766e-06 0.00190218
0.69 0.01 0.00100329 -0.000280287 3.72663e-06 -0.100915
0.695 0.01 0.00152646 -0.000268653 5.09974e-06 -0.200156
0.7 0.01 0.0020278 -0.000256157 6.41245e-06 -0.295516
0.705 0.01 0.0025058 -0.000242884 7.66065e-06 -0.386712
0.71 0.01 0.00295907 -0.000228924 8.84069e-06 -0.47349
0.715 0.01 0.0033864 -0.000214371 9.94936e-06 -0.555621
0.72 0.01 0.00378674 -0.000199321 1.09839e-05 -0.632904
0.725 0.01 0.00415922 -0.000183873 1.19422e-05 -0.705169
0.73 0.01 0.00450313 -0.000168125 1.28223e-05 -0.772274
0.735 0.01 0.00481795 -0.000152176 1.36231e-05 -0.83411
0.74 0.01 0.00510333 -0.000136125 1.43438e-05 -0.890595
0.745 0.01 0.00535909 -0.000120066 1.49842e-05 -0.941679
0.75 0.01 0.00558521 -0.000104092 1.55444e-05 -0.987344
0.755 0.01 0.00578187 -8.82912e-05 1.6025e-05 -1.0276
0.76 0.01 0.00594936 -7.2749e-05 1.64272e-05 -1.06248
0.765 0.01 0.00608816 -5.75438e-05 1.67525e-05 -1.09206
0.77 0.01 0.00619887 -4.27489e-05 1.70027e-05 -1.11641
0.775 0.01 0.00628222 -2.84312e-05 1.718e-05 -1.13567
0.78 0.01 0.00633908 -1.46508e-05 1.72871e-05 -1.14996
0.785 0.01 0.00637041 -1.46079e-06 1.73266e-05 -1.15945
0.79 0.01 0.00637726 1.1093e-05 1.73018e-05 -1.16431
0.795 0.01 0.00636079 2.29721e-05 1.72159e-05 -1.16474
0.8 0.01 0.00632222 3.41456e-05 1.70722e-05 -1.16095
0.805 0.01 0.0062628 4.45901e-05 1.68746e-05 -1.15314
0.81 0.01 0.00618387 5.4289e-05 1.66265e-05 -1.14156
0.815 0.01 0.00608677 6.32332e-05 1.63319e-05 -1.12645
0.82 0.01 0.00597287 7.14201e-05 1.59944e-05 -1.10804
0.825 0.01 0.00584354 7.88537e-05 1.56179e-05 -1.08658
0.83 0.01 0.00570016 8.55437e-05 1.52061e-05 -1.06231
0.835 0.01 0.00554407 9.15057e-05 1.47627e-05 -1.03549
0.84 0.01 0.00537661 9.676e-05 1.42913e-05 -1.00636
0.845 0.01 0.00519907 0.000101332 1.37953e-05 -0.975159
0.85 0.01 0.00501271 0.000105249 1.32782e-05 -0.942113
0.855 0.01 0.00481873 0.000108545 1.27431e-05 -0.907452
0.86 0.01 0.00461827 0.000111254 1.2193e-05 -0.871393
0.865 0.01 0.00441244 0.000113413 1.16307e-05 -0.834142
0.87 0.01 0.00420224 0.000115058 1.1059e-05 -0.795899
0.875 0.01 0.00398865 0.000116228 1.04804e-05 -0.756849
0.88 0.01 0.00377256 0.000116961 9.89695e-06 -0.71717
0.885 0.01 0.00355481 0.00011729 9.31093e-06 -0.677028
0.89 0.01 0.00333617 0.000117251 8.72422e-06 -0.63658
0.895 0.01 0.00311737 0.00011687 8.13859e-06 -0.595974
0.9 0.01 0.00289908 0.000116172 7.55567e-06 -0.555353
0.905 0.01 0.00268195 0.000115174 6.97701e-06 -0.514852
0.91 0.01 0.0024666 0.000113884 6.40407e-06 -0.474605
0.915 0.01 0.00225364 0.000112302 5.83829e-06 -0.434743
0.92 0.01 0.00204371 0.000110415 5.28116e-06 -0.395404
0.925 0.01 0.00183747 0.000108198 4.73424e-06 -0.356728
0.93 0.01 0.00163563 0.00010561 4.19927e-06 -0.31887
0.935 0.01 0.001439 0.000102594 3.67822e-06 -0.281995
0.94 0.01 0.0012485 9.90743e-05 3.1734e-06 -0.246291
0.945 0.01 0.0010652 9.49548e-05 2.68754e-06 -0.211968
0.95 0.01 0.000890323 9.01199e-05 2.22391e-06 -0.179263
0.955 0.01 0.000725309 8.44337e-05 1.78639e-06 -0.148444
0.96 0.01 0.00057182 7.77425e-05 1.37961e-06 -0.119808
0.965 0.01 0.000431753 6.9882e-05 1.00899e-06 -0.0936806
0.97 0.01 0.000307223 6.0691e-05 6.80806e-07 -0.0704047
0.975 0.01 0.000200515 5.00421e-05 4.02094e-07 -0.0503199
0.98 0.01 0.000113946 3.79071e-05 1.80394e-07 -0.0337212
0.985 0.01 4.95912e-05 2.44985e-05 2.30268e-08 -0.0207849
0.99 0.01 8.73948e-06 1.05815e-05 -6.45906e-08 -0.0114402
0.995 0.01 -9.13537e-06 -1.85245e-06 -8.27895e-08 -0.00516609
1 0.01 -8.2769e-06 -8.27895e-06 -4.60669e-08 -0.000748433
0 0.015 0 0 0.00662152 0
0.005 0.015 0 0 0 3.30967e-05
0.01 0.015 8.86714e-06 -1.29806e-05 -4.14561e-10 -0.00732813
0.015 0.015 4.24348e-05 -4.24401e-05 1.29808e-07 -0.013119
0.02 0.015 0.000102499 -7.43342e-05 4.23997e-07 -0.0189062
0.025 0.015 0.000187304 -0.000102832 8.73174e-07 -0.0254676
0.03 0.015 0.000293192 -0.000125904 1.45236e-06 -0.0330744
0.035 0.015 0.000415737 -0.000143189 2.13228e-06 -0.0417066
0.04 0.015 0.000550404 -0.000155005 2.88434e-06 -0.0511934
0.045 0.015 0.000692896 -0.000161922 3.68246e-06 -0.0612961
0.05 0.015 0.000839307 -0.000164568 4.50372e-06 -0.0717552
0.055 0.015 0.000986179 -0.000163556 5.32833e-06 -0.0823154
0.06 0.015 0.00113051 -0.000159453 6.1395e-06 -0.0927385
0.065 0.015 0.00126975 -0.000152774 6.92312e-06 -0.10281
0.07 0.015 0.00140172 -0.000143977 7.66753e-06 -0.11234
0.075 0.015 0.00152466 -0.000133468 8.36321e-06 -0.121166
0.08 0.015 0.0016371 -0.000121605 9.00255e-06 -0.129147
0.085 0.015 0.00173788 -0.000108702 9.57963e-06 -0.136168
0.09 0.015 0.00182612 -9.50291e-05 1.009e-05 -0.142133
0.095 0.015 0.00190115 -8.08197e-05 1.05303e-05 -0.146965
0.1 0.015 0.00196249 -6.62706e-05 1.08986e-05 -0.150602
0.105 0.015 0.00200984 -5.15455e-05 1.11935e-05 -0.152999
0.11 0.015 0.00204303 -3.67775e-05 1.14145e-05 -0.154121
0.115 0.015 0.002062 -2.20712e-05 1.15618e-05 -0.153944
0.12 0.015 0.00206679 -7.50524e-06 1.16357e-05 -0.152451
0.125 0.015 0.00205749 6.86566e-06 1.16373e-05 -0.149633
0.13 0.015 0.00203423 2.10081e-05 1.15676e-05 -0.145484
0.135 0.015 0.00199719 3.4908e-05 1.14278e-05 -0.140003
0.14 0.015 0.00194653 4.8568e-05 1.1219e-05 -0.133192
0.145 0.015 0.00188242 6.20054e-05 1.09426e-05 -0.12505
0.15 0.015 0.00180502 7.52499e-05 1.05995e-05 -0.115579
0.155 0.015 0.00171443 8.83409e-05 1.01906e-05 -0.10478
0.16 0.015 0.00161076 0.000101326 9.71657e-06 -0.09265
0.165 0.015 0.00149403 0.000114258 9.17782e-06 -0.0791857
0.17 0.015 0.00136425 0.000127195 8.57447e-06 -0.0643802
0.175 0.015 0.00122137 0.000140194 7.90634e-06 -0.0482239
0.18 0.015 0.00106527 0.000153314 7.17298e-06 -0.0307042
0.185 0.015 0.000895801 0.000166613 6.37364e-06 -0.0118053
0.19 0.015 0.000712767 0.000180145 5.50728e-06 0.00849147
0.195 0.015 0.000515917 0.000193958 4.5726e-06 0.0302075
0.2 0.015 0.000304965 0.000208099 3.56808e-06 0.0533667
0.205 0.015 7.9591e-05 0.000222606 2.49197e-06 0.0779946
0.21 0.015 -0.000160557 0.00023751 1.34236e-06 0.104119
0.215 0.015 -0.00041585 0.000252835 1.17186e-07 0.131767
0.22 0.015 -0.000686677 0.000268601 -1.18571e-06 0.160968
0.225 0.015 -0.000973434 0.000284815 -2.56857e-06 0.19175
0.23 0.015 -0.00127652 0.000301479 -4.03365e-06 0.224141
0.235 0.015 -0.00159632 0.000318588 -5.58319e-06 0.258167
0.24 0.015 -0.00193322 0.000336129 -7.2194e-06 0.293852
0.245 0.015 -0.00228757 0.000354081 -8.94439e-06 0.331217
0.25 0.015 -0.00265971 0.000372416 -1.07602e-05 0.370281
0.255 0.015 -0.00304992 0.000391101 -1.26686e-05 0.411057
0.26 0.015 -0.00345847 0.000410093 -1.46712e-05 0.453555
0.265 0.015 -0.00388557 0.000429348 -1.67696e-05 0.497779
0.27 0.015 -0.00433136 0.00044881 -1.89649e-05 0.543729
0.275 0.015 -0.00479596 0.000468423 -2.1258e-05 0.591397
0.28 0.015 -0.0052794 0.00048812 -2.36495e-05 0.640768
0.285 0.015 -0.00578164 0.000507834 -2.61396e-05 0.691823
0.29 0.015 -0.00630258 0.000527488 -2.87283e-05 0.744533
0.295 0.015 -0.00684203 0.000547002 -3.1415e-05 0.79886
0.3 0.015 -0.00739974 0.000566293 -3.4199e-05 0.854762
0.305 0.015 -0.00797534 0.000585271 -3.70787e-05 0.912184
0.31 0.015 -0.0085684 0.000603842 -4.00525e-05 0.971066
0.315 0.015 -0.00917838 0.000621908 -4.31181e-05 1.03134
0.32 0.015 -0.00980464 0.000639368 -4.62727e-05 1.09291
0.325 0.015 -0.0104465 0.000656116 -4.9513e-05 1.15571
0.33 0.015 -0.011103 0.000672045 -5.28352e-05 1.21963
0.335 0.015 -0.0117733 0.000687044 -5.62349e-05 1.28455
0.34 0.015 -0.0124563 0.000700998 -5.97072e-05 1.35038
0.345 0.015 -0.0131509 0.000713794 -6.32465e-05 1.41697
0.35 0.015 -0.0138557 0.000725315 -6.68469e-05 1.48419
0.355 0.015 -0.0145695 0.000735445 -7.05017e-05 1.5519
0.36 0.015 -0.0152908 0.000744066 -7.42035e-05 1.61994
0.365 0.015 -0.0160179 0.000751063 -7.79446e-05 1.68815
0.37 0.015 -0.0167492 0.000756322 -8.17166e-05 1.75636
0.375 0.015 -0.0174829 0.00075973 -8.55104e-05 1.8244
0.38 0.015 -0.018217 0.000761178 -8.93167e-05 1.89207
0.385 0.015 -0.0189497 0.000760561 -9.31252e-05 1.9592
0.39 0.015 -0.0196788 0.000757778 -9.69254e-05 2.02557
0.395 0.015 -0.0204022 0.000752734 -0.000100706 2.091
0.4 0.015 -0.0211177 0.000745339 -0.000104456 2.15527
0.405 0.015 -0.0218229 0.000735511 -0.000108163 2.21818
0.41 0.015 -0.0225156 0.000723176 -0.000111815 2.27951
0.415 0.015 -0.0231932 0.000708268 -0.000115399 2.33905
0.42 0.015 -0.0238534 0.000690732 -0.000118902 2.39658
0.425 0.015 -0.0244936 0.000670521 -0.000122311 2.4519
0.43 0.015 -0.0251113 0.000647601 -0.000125612 2.50478
0.435 0.015 -0.0257041 0.000621947 -0.000128791 2.55503
0.44 0.015 -0.0262693 0.00059355 -0.000131836 2.60242
0.445 0.015 -0.0268044 0.00056241 -0.000134732 2.64675
0.45 0.015 -0.0273071 0.000528543 -0.000137465 2.68783
0.455 0.015 -0.0277747 0.000491979 -0.000140023 2.72547
0.46 0.015 -0.0282049 0.000452761 -0.000142391 2.75947
0.465 0.015 -0.0285953 0.000410948 -0.000144556 2.78967
0.47 0.015 -0.0289438 0.000366615 -0.000146506 2.81588
0.475 0.015 -0.0292479 0.000319849 -0.000148229 2.83796
0.48 0.015 -0.0295058 0.000270757 -0.000149711 2.85576
0.485 0.015 -0.0297154 0.000219459 -0.000150943 2.86914
0.49 0.015 -0.0298749 0.00016609 -0.000151912 2.87798
0.495 0.015 -0.0299825 0.000110804 -0.00015261 2.88217
0.5 0.015 -0.0300367 5.37664e-05 -0.000153027 2.88162
0.505 0.015 -0.0300363 -4.8395e-06 -0.000153155 2.87625
0.51 0.015 -0.0299798 -6.4817e-05 -0.000152986 2.86599
0.515 0.015 -0.0298664 -0.000125955 -0.000152514 2.85079
0.52 0.015 -0.0296952 -0.000188029 -0.000151734 2.83063
0.525 0.015 -0.0294657 -0.000250802 -0.000150641 2.8055
0.53 0.015 -0.0291774 -0.000314025 -0.000149233 2.77539
0.535 0.015 -0.0288303 -0.000377438 -0.000147508 2.74033
0.54 0.015 -0.0284244 -0.000440772 -0.000145466 2.70036
0.545 0.015 -0.02796 -0.00050375 -0.000143108 2.65554
0.55 0.015 -0.0274378 -0.000566086 -0.000140436 2.60594
0.555 0.015 -0.0268586 -0.000627493 -0.000137455 2.55167
0.56 0.015 -0.0262234 -0.000687676 -0.000134169 2.49284
0.565 0.015 -0.0255338 -0.000746341 -0.000130586 2.42958
0.57 0.015 -0.0247911 -0.000803194 -0.000126713 2.36204
0.575 0.015 -0.0239975 -0.000857941 -0.000122561 2.29038
0.58 0.015 -0.0231548 -0.000910295 -0.000118141 2.2148
0.585 0.015 -0.0222656 -0.000959974 -0.000113466 2.1355
0.59 0.015 -0.0213324 -0.0010067 -0.000108549 2.05269
0.595 0.015 -0.0203581 -0.00105023 -0.000103406 1.9666
0.6 0.015 -0.0193457 -0.00109029 -9.80536e-05 1.87749
0.605 0.015 -0.0182985 -0.00112666 -9.251e-05 1.78561
0.61 0.015 -0.0172199 -0.00115912 -8.67939e-05 1.69124
0.615 0.015 -0.0161136 -0.00118747 -8.09255e-05 1.59466
0.62 0.015 -0.0149833 -0.00121155 -7.49257e-05 1.49617
0.625 0.015 -0.013833 -0.0012312 -6.88163e-05 1.39606
0.63 0.015 -0.0126667 -0.0012463 -6.26199e-05 1.29466
0.635 0.015 -0.0114886 -0.00125674 -5.63593e-05 1.19227
0.64 0.015 -0.0103029 -0.00126247 -5.00582e-05 1.08922
0.645 0.015 -0.0091138 -0.00126344 -4.37402e-05 0.985837
0.65 0.015 -0.00792561 -0.00125964 -3.74292e-05 0.882446
0.655 0.015 -0.00674262 -0.00125109 -3.11489e-05 0.779373
0.66 0.015 -0.00556906 -0.00123786 -2.49231e-05 0.676945
0.665 0.015 -0.00440913 -0.00122002 -1.87749e-05 0.575483
0.67 0.015 -0.00326693 -0.00119769 -1.27273e-05 0.475304
0.675 0.015 -0.00214646 -0.00117102 -6.80218e-06 0.37672
0.68 0.015 -0.00105158 -0.00114018 -1.02096e-06 0.280033
0.685 0.015 1.4013e-05 -0.00110538 4.59602e-06 0.185535
0.69 0.015 0.0010468 -0.00106685 1.00295e-05 0.093508
0.695 0.015 0.00204348 -0.00102485 1.52615e-05 0.00421946
0.7 0.015 0.00300097 -0.000979651 2.02752e-05 -0.0820768
0.705 0.015 0.00391642 -0.000931549 2.50554e-05 -0.165143
0.71 0.015 0.00478727 -0.000880858 2.95883e-05 -0.244759
0.715 0.015 0.00561121 -0.000827907 3.38618e-05 -0.320722
0.72 0.015 0.00638623 -0.000773032 3.78655e-05 -0.39285
0.725 0.015 0.00711063 -0.000716581 4.15905e-05 -0.46098
0.73 0.015 0.00778299 -0.000658901 4.50298e-05 -0.524972
0.735 0.015 0.00840221 -0.000600345 4.81783e-05 -0.584707
0.74 0.015 0.0089675 -0.00054126 5.10322e-05 -0.640087
0.745 0.015 0.00947838 -0.000481989 5.359e-05 -0.691038
0.75 0.015 0.00993467 -0.000422866 5.58515e-05 -0.737509
0.755 0.015 0.0103365 -0.000364215 5.78182e-05 -0.779472
0.76 0.015 0.0106842 -0.000306342 5.94933e-05 -0.816919
0.765 0.015 0.0109786 -0.00024954 6.08814e-05 -0.849867
0.77 0.015 0.0112205 -0.000194082 6.19886e-05 -0.878352
0.775 0.015 0.0114111 -0.000140218 6.28223e-05 -0.902433
0.78 0.015 0.0115518 -8.81768e-05 6.3391e-05 -0.922185
0.785 0.015 0.0116443 -3.81643e-05 6.37043e-05 -0.937707
0.79 0.015 0.0116904 9.64035e-06 6.3773e-05 -0.94911
0.795 0.015 0.011692 5.50832e-05 6.36084e-05 -0.956524