Title=" Lid Driven Flow"
VARIABLES="X","Y","U","V","psi","xi"
ZONE T= "BOX", I= 101, J=101, F=POINT
0 0 0 0 -138.065 0
0.01 0 0 0 0 0
0.02 0 0 0 0 0
0.03 0 0 0 0 -150.455
0.04 0 0 0 0 -107.447
0.05 0 0 0 0 -79.3548
0.06 0 0 0 0 -61.6828
0.07 0 0 0 0 -50.2752
0.08 0 0 0 0 -42.5605
0.09 0 0 0 0 -37.0758
0.1 0 0 0 0 -32.9944
0.11 0 0 0 0 -29.8373
0.12 0 0 0 0 -27.3159
0.13 0 0 0 0 -25.249
0.14 0 0 0 0 -23.5179
0.15 0 0 0 0 -22.0416
0.16 0 0 0 0 -20.7635
0.17 0 0 0 0 -19.6424
0.18 0 0 0 0 -18.648
0.19 0 0 0 0 -17.7572
0.2 0 0 0 0 -16.9525
0.21 0 0 0 0 -16.2202
0.22 0 0 0 0 -15.5492
0.23 0 0 0 0 -14.9308
0.24 0 0 0 0 -14.3581
0.25 0 0 0 0 -13.8252
0.26 0 0 0 0 -13.3273
0.27 0 0 0 0 -12.8606
0.28 0 0 0 0 -12.4217
0.29 0 0 0 0 -12.0078
0.3 0 0 0 0 -11.6166
0.31 0 0 0 0 -11.2461
0.32 0 0 0 0 -10.8946
0.33 0 0 0 0 -10.5606
0.34 0 0 0 0 -10.2428
0.35 0 0 0 0 -9.94026
0.36 0 0 0 0 -9.65197
0.37 0 0 0 0 -9.37717
0.38 0 0 0 0 -9.11517
0.39 0 0 0 0 -8.86542
0.4 0 0 0 0 -8.62743
0.41 0 0 0 0 -8.40081
0.42 0 0 0 0 -8.18521
0.43 0 0 0 0 -7.98038
0.44 0 0 0 0 -7.7861
0.45 0 0 0 0 -7.60224
0.46 0 0 0 0 -7.42868
0.47 0 0 0 0 -7.26536
0.48 0 0 0 0 -7.11227
0.49 0 0 0 0 -6.96944
0.5 0 0 0 0 -6.83691
0.51 0 0 0 0 -6.71478
0.52 0 0 0 0 -6.60318
0.53 0 0 0 0 -6.50227
0.54 0 0 0 0 -6.41222
0.55 0 0 0 0 -6.33325
0.56 0 0 0 0 -6.2656
0.57 0 0 0 0 -6.20953
0.58 0 0 0 0 -6.16532
0.59 0 0 0 0 -6.13331
0.6 0 0 0 0 -6.11381
0.61 0 0 0 0 -6.1072
0.62 0 0 0 0 -6.11386
0.63 0 0 0 0 -6.1342
0.64 0 0 0 0 -6.16867
0.65 0 0 0 0 -6.21774
0.66 0 0 0 0 -6.2819
0.67 0 0 0 0 -6.3617
0.68 0 0 0 0 -6.45773
0.69 0 0 0 0 -6.5706
0.7 0 0 0 0 -6.70102
0.71 0 0 0 0 -6.84972
0.72 0 0 0 0 -7.01755
0.73 0 0 0 0 -7.20544
0.74 0 0 0 0 -7.41445
0.75 0 0 0 0 -7.64579
0.76 0 0 0 0 -7.90083
0.77 0 0 0 0 -8.18121
0.78 0 0 0 0 -8.48885
0.79 0 0 0 0 -8.826
0.8 0 0 0 0 -9.19544
0.81 0 0 0 0 -9.60049
0.82 0 0 0 0 -10.0453
0.83 0 0 0 0 -10.5349
0.84 0 0 0 0 -11.0759
0.85 0 0 0 0 -11.6764
0.86 0 0 0 0 -12.347
0.87 0 0 0 0 -13.1015
0.88 0 0 0 0 -13.9582
0.89 0 0 0 0 -14.9419
0.9 0 0 0 0 -16.0861
0.91 0 0 0 0 -17.4379
0.92 0 0 0 0 -19.0648
0.93 0 0 0 0 -21.0657
0.94 0 0 0 0 -23.5911
0.95 0 0 0 0 -26.8804
0.96 0 0 0 0 -31.3351
0.97 0 0 0 0 -37.6752
0.98 0 0 0 0 -47.2873
0.99 0 0 0 0 -62.9899
1 0 0 0 0 -90.4044
0 0.01 0 0 0 0
0.01 0.01 0 0 0 0
0.02 0.01 0 0 0 -0.00173929
0.03 0.01 0 0 0 -0.00556328
0.04 0.01 0 0 0 -0.00954644
0.05 0.01 0 0 0 -0.0123983
0.06 0.01 0 0 0 -0.0133901
0.07 0.01 0 0 0 -0.0121566
0.08 0.01 0 0 0 -0.00855386
0.09 0.01 0 0 0 -0.00257056
0.1 0.01 0 0 0 0.0057242
0.11 0.01 0 0 0 0.0162131
0.12 0.01 0 0 0 0.0287506
0.13 0.01 0 0 0 0.043176
0.14 0.01 0 0 0 0.0593219
0.15 0.01 0 0 0 0.07702
0.16 0.01 0 0 0 0.096105
0.17 0.01 0 0 0 0.116417
0.18 0.01 0 0 0 0.137802
0.19 0.01 0 0 0 0.160115
0.2 0.01 0 0 0 0.183219
0.21 0.01 0 0 0 0.206985
0.22 0.01 0 0 0 0.231289
0.23 0.01 0 0 0 0.256019
0.24 0.01 0 0 0 0.281065
0.25 0.01 0 0 0 0.306326
0.26 0.01 0 0 0 0.331704
0.27 0.01 0 0 0 0.357107
0.28 0.01 0 0 0 0.382445
0.29 0.01 0 0 0 0.407631
0.3 0.01 0 0 0 0.43258
0.31 0.01 0 0 0 0.45721
0.32 0.01 0 0 0 0.481436
0.33 0.01 0 0 0 0.505178
0.34 0.01 0 0 0 0.528353
0.35 0.01 0 0 0 0.550878
0.36 0.01 0 0 0 0.57267
0.37 0.01 0 0 0 0.593647
0.38 0.01 0 0 0 0.613723
0.39 0.01 0 0 0 0.632814
0.4 0.01 0 0 0 0.650836
0.41 0.01 0 0 0 0.667705
0.42 0.01 0 0 0 0.683336
0.43 0.01 0 0 0 0.697646
0.44 0.01 0 0 0 0.710555
0.45 0.01 0 0 0 0.721983
0.46 0.01 0 0 0 0.731854
0.47 0.01 0 0 0 0.740096
0.48 0.01 0 0 0 0.746642
0.49 0.01 0 0 0 0.751427
0.5 0.01 0 0 0 0.754397
0.51 0.01 0 0 0 0.755501
0.52 0.01 0 0 0 0.754698
0.53 0.01 0 0 0 0.751956
0.54 0.01 0 0 0 0.74725
0.55 0.01 0 0 0 0.740568
0.56 0.01 0 0 0 0.731908
0.57 0.01 0 0 0 0.721279
0.58 0.01 0 0 0 0.708703
0.59 0.01 0 0 0 0.694215
0.6 0.01 0 0 0 0.677862
0.61 0.01 0 0 0 0.659704
0.62 0.01 0 0 0 0.639817
0.63 0.01 0 0 0 0.618288
0.64 0.01 0 0 0 0.595217
0.65 0.01 0 0 0 0.570719
0.66 0.01 0 0 0 0.544919
0.67 0.01 0 0 0 0.517957
0.68 0.01 0 0 0 0.489981
0.69 0.01 0 0 0 0.461151
0.7 0.01 0 0 0 0.431635
0.71 0.01 0 0 0 0.401611
0.72 0.01 0 0 0 0.371261
0.73 0.01 0 0 0 0.340775
0.74 0.01 0 0 0 0.310344
0.75 0.01 0 0 0 0.280163
0.76 0.01 0 0 0 0.250427
0.77 0.01 0 0 0 0.221331
0.78 0.01 0 0 0 0.193063
0.79 0.01 0 0 0 0.165812
0.8 0.01 0 0 0 0.139756
0.81 0.01 0 0 0 0.115068
0.82 0.01 0 0 0 0.0919093
0.83 0.01 0 0 0 0.07043
0.84 0.01 0 0 0 0.0507674
0.85 0.01 0 0 0 0.0330435
0.86 0.01 0 0 0 0.0173636
0.87 0.01 0 0 0 0.00381419
0.88 0.01 0 0 0 -0.00753915
0.89 0.01 0 0 0 -0.0166543
0.9 0.01 0 0 0 -0.0235159
0.91 0.01 0 0 0 -0.0281392
0.92 0.01 0 0 0 -0.0305763
0.93 0.01 0 0 0 -0.030923
0.94 0.01 0 0 0 -0.0293308
0.95 0.01 0 0 0 -0.0260234
0.96 0.01 0 0 0 -0.0213215
0.97 0.01 0 0 0 -0.0156802
0.98 0.01 0 0 0 -0.00974297
0.99 0.01 0 0 0 -0.00440393
1 0.01 0 0 0 -0.000812265
0 0.02 0 0 -0.000812265 0
0.01 0.02 0 0 0 -0.00173929
0.02 0.02 1.3934e-05 -1.39082e-05 8.69645e-08 -0.00208985
0.03 0.02 3.96127e-05 -1.95179e-05 2.78164e-07 -0.00243885
0.04 0.02 6.38346e-05 -1.70877e-05 4.77321e-07 -0.00265486
0.05 0.02 7.74775e-05 -9.60907e-06 6.19916e-07 -0.00216708
0.06 0.02 7.48644e-05 6.04276e-07 6.69502e-07 -0.000470272
0.07 0.02 5.281e-05 1.20904e-05 6.07829e-07 0.00277924
0.08 0.02 9.82535e-06 2.3965e-05 4.27691e-07 0.00777902
0.09 0.02 -5.44499e-05 3.56951e-05 1.28526e-07 0.0146162
0.1 0.02 -0.000139635 4.6959e-05 -2.86212e-07 0.0232998
0.11 0.02 -0.000244869 5.75659e-05 -8.10657e-07 0.033785
0.12 0.02 -0.000368987 6.74071e-05 -1.43753e-06 0.0459908
0.13 0.02 -0.000510643 7.64281e-05 -2.1588e-06 0.0598129
0.14 0.02 -0.000668392 8.461e-05 -2.9661e-06 0.0751325
0.15 0.02 -0.000840747 9.19577e-05 -3.851e-06 0.0918228
0.16 0.02 -0.00102623 9.84917e-05 -4.80525e-06 0.109753
0.17 0.02 -0.00122337 0.000104243 -5.82084e-06 0.128794
0.18 0.02 -0.00143076 0.000109247 -6.8901e-06 0.148815
0.19 0.02 -0.00164706 0.000113543 -8.00577e-06 0.169692
0.2 0.02 -0.00187096 0.000117173 -9.16097e-06 0.191303
0.21 0.02 -0.00210124 0.000120175 -1.03492e-05 0.213533
0.22 0.02 -0.00233674 0.000122585 -1.15645e-05 0.236271
0.23 0.02 -0.00257635 0.00012444 -1.28009e-05 0.259409
0.24 0.02 -0.00281902 0.000125768 -1.40533e-05 0.282847
0.25 0.02 -0.00306377 0.000126599 -1.53163e-05 0.306487
0.26 0.02 -0.00330964 0.000126953 -1.65852e-05 0.330236
0.27 0.02 -0.00355572 0.000126852 -1.78554e-05 0.354004
0.28 0.02 -0.00380112 0.00012631 -1.91222e-05 0.377703
0.29 0.02 -0.004045 0.000125338 -2.03815e-05 0.40125
0.3 0.02 -0.0042865 0.000123947 -2.1629e-05 0.424561
0.31 0.02 -0.00452482 0.00012214 -2.28605e-05 0.447554
0.32 0.02 -0.00475914 0.000119922 -2.40718e-05 0.470149
0.33 0.02 -0.00498865 0.000117292 -2.52589e-05 0.492268
0.34 0.02 -0.00521253 0.00011425 -2.64176e-05 0.513829
0.35 0.02 -0.00543 0.000110794 -2.75439e-05 0.534755
0.36 0.02 -0.00564023 0.000106923 -2.86335e-05 0.554967
0.37 0.02 -0.00584241 0.000102632 -2.96823e-05 0.574386
0.38 0.02 -0.00603574 9.79197e-05 -3.06861e-05 0.592934
0.39 0.02 -0.0062194 9.27849e-05 -3.16407e-05 0.610532
0.4 0.02 -0.00639258 8.72276e-05 -3.25418e-05 0.627103
0.41 0.02 -0.00655447 8.12493e-05 -3.33852e-05 0.64257
0.42 0.02 -0.00670427 7.48541e-05 -3.41668e-05 0.656858
0.43 0.02 -0.0068412 6.80488e-05 -3.48823e-05 0.669892
0.44 0.02 -0.00696448 6.08428e-05 -3.55277e-05 0.681601
0.45 0.02 -0.00707339 5.32492e-05 -3.60991e-05 0.691916
0.46 0.02 -0.00716719 4.52846e-05 -3.65927e-05 0.70077
0.47 0.02 -0.00724523 3.69694e-05 -3.70048e-05 0.708101
0.48 0.02 -0.00730686 2.8328e-05 -3.73321e-05 0.713851
0.49 0.02 -0.00735152 1.93891e-05 -3.75713e-05 0.717968
0.5 0.02 -0.00737868 1.01857e-05 -3.77198e-05 0.720406
0.51 0.02 -0.00738789 7.54809e-07 -3.7775e-05 0.721124
0.52 0.02 -0.00737879 -8.8621e-06 -3.77349e-05 0.72009
0.53 0.02 -0.00735108 -1.86195e-05 -3.75978e-05 0.717279
0.54 0.02 -0.00730457 -2.8468e-05 -3.73625e-05 0.712675
0.55 0.02 -0.00723914 -3.83542e-05 -3.70284e-05 0.706271
0.56 0.02 -0.00715481 -4.82218e-05 -3.65954e-05 0.69807
0.57 0.02 -0.00705169 -5.80109e-05 -3.60639e-05 0.688086
0.58 0.02 -0.00693 -6.76593e-05 -3.54351e-05 0.676342
0.59 0.02 -0.0067901 -7.71029e-05 -3.47107e-05 0.662873
0.6 0.02 -0.00663244 -8.62755e-05 -3.38931e-05 0.647725
0.61 0.02 -0.00645763 -9.51106e-05 -3.29852e-05 0.630957
0.62 0.02 -0.00626638 -0.000103541 -3.19908e-05 0.612638
0.63 0.02 -0.00605953 -0.0001115 -3.09144e-05 0.592848
0.64 0.02 -0.00583805 -0.000118922 -2.97608e-05 0.57168
0.65 0.02 -0.00560303 -0.000125744 -2.85359e-05 0.549236
0.66 0.02 -0.00535566 -0.000131904 -2.72459e-05 0.525631
0.67 0.02 -0.00509726 -0.000137345 -2.58978e-05 0.500988
0.68 0.02 -0.00482924 -0.000142015 -2.4499e-05 0.47544
0.69 0.02 -0.00455311 -0.000145864 -2.30575e-05 0.449128
0.7 0.02 -0.00427046 -0.000148849 -2.15817e-05 0.422202
0.71 0.02 -0.00398295 -0.000150934 -2.00805e-05 0.394817
0.72 0.02 -0.00369232 -0.00015209 -1.85631e-05 0.367135
0.73 0.02 -0.00340034 -0.000152293 -1.70387e-05 0.33932
0.74 0.02 -0.00310881 -0.000151529 -1.55172e-05 0.311542
0.75 0.02 -0.00281956 -0.000149791 -1.40082e-05 0.283971
0.76 0.02 -0.00253442 -0.000147082 -1.25214e-05 0.256776
0.77 0.02 -0.00225521 -0.000143411 -1.10665e-05 0.230126
0.78 0.02 -0.00198372 -0.000138797 -9.65316e-06 0.204189
0.79 0.02 -0.00172169 -0.000133267 -8.2906e-06 0.179125
0.8 0.02 -0.00147081 -0.000126859 -6.98782e-06 0.15509
0.81 0.02 -0.00123269 -0.000119618 -5.75341e-06 0.132233
0.82 0.02 -0.00100882 -0.000111595 -4.59547e-06 0.110694
0.83 0.02 -0.000800613 -0.000102855 -3.52151e-06 0.0906008
0.84 0.02 -0.000609341 -9.34664e-05 -2.53838e-06 0.0720701
0.85 0.02 -0.00043613 -8.35097e-05 -1.65218e-06 0.0552045
0.86 0.02 -0.000281945 -7.30736e-05 -8.68185e-07 0.0400905
0.87 0.02 -0.000147567 -6.22571e-05 -1.90714e-07 0.0267972
0.88 0.02 -3.35763e-05 -5.11714e-05 3.76953e-07 0.0153734
0.89 0.02 5.96781e-05 -3.9942e-05 8.32711e-07 0.00584541
0.9 0.02 0.000132106 -2.87126e-05 1.17579e-06 -0.00178621
0.91 0.02 0.000183914 -1.76512e-05 1.40696e-06 -0.00755037
0.92 0.02 0.000215659 -6.95946e-06 1.52881e-06 -0.0115104
0.93 0.02 0.000228313 3.11349e-06 1.54614e-06 -0.0137702
0.94 0.02 0.000223354 1.22487e-05 1.46654e-06 -0.0144824
0.95 0.02 0.000202894 2.00233e-05 1.30117e-06 -0.0138581
0.96 0.02 0.000169848 2.58581e-05 1.06607e-06 -0.0121785
0.97 0.02 0.000128159 2.89461e-05 7.84007e-07 -0.00980381
0.98 0.02 8.30657e-05 2.81905e-05 4.87148e-07 -0.00716924
0.99 0.02 4.13124e-05 2.23267e-05 2.20197e-07 -0.00473222
1 0.02 1.0985e-05 1.10098e-05 4.06133e-08 -0.00277443
0 0.03 0 0 -0.004394 0
0.01 0.03 0 0 0 -0.0055736
0.02 0.03 1.96366e-05 -3.96127e-05 2.7868e-07 -0.00244195
0.03 0.03 5.01028e-05 -4.99006e-05 7.92253e-07 0.000552564
0.04 0.03 7.28515e-05 -3.78648e-05 1.27669e-06 0.00353288
0.05 0.03 7.49426e-05 -1.10299e-05 1.54955e-06 0.00685525
0.06 0.03 4.77338e-05 2.46674e-05 1.49728e-06 0.0108971
0.07 0.03 -1.40604e-05 6.50389e-05 1.05619e-06 0.0159654
0.08 0.03 -0.000113204 0.00010726 1.96501e-07 0.0222751
0.09 0.03 -0.000250628 0.00014946 -1.089e-06 0.029957
0.1 0.03 -0.000425969 0.000190419 -2.79271e-06 0.0390735
0.11 0.03 -0.000637962 0.000229352 -4.89739e-06 0.0496346
0.12 0.03 -0.000884741 0.000265774 -7.37976e-06 0.0616111
0.13 0.03 -0.00116405 0.000299404 -1.02129e-05 0.0749463
0.14 0.03 -0.00147338 0.000330104 -1.33678e-05 0.0895632
0.15 0.03 -0.00181013 0.000357833 -1.6815e-05 0.105372
0.16 0.03 -0.00217163 0.000382621 -2.05245e-05 0.122274
0.17 0.03 -0.00255523 0.000404539 -2.44674e-05 0.140167
0.18 0.03 -0.00295834 0.000423691 -2.86153e-05 0.158944
0.19 0.03 -0.00337843 0.000440196 -3.29412e-05 0.178499
0.2 0.03 -0.00381308 0.000454182 -3.74192e-05 0.198728
0.21 0.03 -0.00425998 0.000465777 -4.20248e-05 0.219528
0.22 0.03 -0.0047169 0.000475107 -4.67347e-05 0.240797
0.23 0.03 -0.00518173 0.000482287 -5.15269e-05 0.26244
0.24 0.03 -0.00565245 0.000487426 -5.63805e-05 0.28436
0.25 0.03 -0.00612712 0.000490618 -6.12754e-05 0.306466
0.26 0.03 -0.0066039 0.000491947 -6.61928e-05 0.328669
0.27 0.03 -0.00708099 0.000491482 -7.11144e-05 0.350883
0.28 0.03 -0.00755666 0.000489279 -7.60224e-05 0.373023
0.29 0.03 -0.00802924 0.000485383 -8.08999e-05 0.395008
0.3 0.03 -0.00849707 0.000479829 -8.57301e-05 0.416756
0.31 0.03 -0.00895855 0.000472637 -9.04964e-05 0.43819
0.32 0.03 -0.00941206 0.000463824 -9.51828e-05 0.45923
0.33 0.03 -0.00985602 0.000453395 -9.97729e-05 0.479801
0.34 0.03 -0.0102889 0.000441354 -0.000104251 0.499826
0.35 0.03 -0.010709 0.000427696 -0.0001086 0.519231
0.36 0.03 -0.0111148 0.00041242 -0.000112804 0.537941
0.37 0.03 -0.0115049 0.000395519 -0.000116848 0.555881
0.38 0.03 -0.0118774 0.000376992 -0.000120715 0.57298
0.39 0.03 -0.012231 0.00035684 -0.000124388 0.589166
0.4 0.03 -0.0125641 0.000335069 -0.000127852 0.604366
0.41 0.03 -0.0128751 0.000311693 -0.000131089 0.618512
0.42 0.03 -0.0131624 0.000286731 -0.000134085 0.631537
0.43 0.03 -0.0134247 0.000260217 -0.000136824 0.643374
0.44 0.03 -0.0136604 0.000232192 -0.00013929 0.653961
0.45 0.03 -0.0138681 0.000202712 -0.000141468 0.663237
0.46 0.03 -0.0140466 0.000171845 -0.000143344 0.671145
0.47 0.03 -0.0141945 0.000139673 -0.000144904 0.677633
0.48 0.03 -0.0143107 0.000106294 -0.000146137 0.682653
0.49 0.03 -0.0143942 7.18206e-05 -0.00014703 0.686161
0.5 0.03 -0.0144439 3.63808e-05 -0.000147573 0.688119
0.51 0.03 -0.0144591 1.1864e-07 -0.000147758 0.688497
0.52 0.03 -0.014439 -3.68066e-05 -0.000147576 0.68727
0.53 0.03 -0.0143833 -7.42208e-05 -0.000147022 0.68442
0.54 0.03 -0.0142915 -0.000111935 -0.000146091 0.679938
0.55 0.03 -0.0141635 -0.000149749 -0.000144783 0.673822
0.56 0.03 -0.0139993 -0.000187447 -0.000143096 0.66608
0.57 0.03 -0.0137992 -0.000224805 -0.000141034 0.656728
0.58 0.03 -0.0135637 -0.000261589 -0.0001386 0.645791
0.59 0.03 -0.0132934 -0.000297557 -0.000135802 0.633305
0.6 0.03 -0.0129893 -0.000332465 -0.000132649 0.619314
0.61 0.03 -0.0126525 -0.000366061 -0.000129153 0.603874
0.62 0.03 -0.0122845 -0.000398097 -0.000125328 0.587048
0.63 0.03 -0.0118868 -0.000428325 -0.000121191 0.568911
0.64 0.03 -0.0114613 -0.000456501 -0.000116761 0.549545
0.65 0.03 -0.01101 -0.00048239 -0.00011206 0.529045
0.66 0.03 -0.0105353 -0.000505766 -0.000107113 0.507511
0.67 0.03 -0.0100396 -0.000526418 -0.000101945 0.485052
0.68 0.03 -0.00952562 -0.000544148 -9.65847e-05 0.461788
0.69 0.03 -0.00899618 -0.000558779 -9.10621e-05 0.437841
0.7 0.03 -0.0084543 -0.000570152 -8.54091e-05 0.413343
0.71 0.03 -0.00790313 -0.000578133 -7.9659e-05 0.38843
0.72 0.03 -0.0073459 -0.000582615 -7.38464e-05 0.363242
0.73 0.03 -0.00678596 -0.000583514 -6.80067e-05 0.337923
0.74 0.03 -0.0062267 -0.000580779 -6.21761e-05 0.312619
0.75 0.03 -0.00567157 -0.000574386 -5.63911e-05 0.287477
0.76 0.03 -0.005124 -0.000564346 -5.06884e-05 0.262645
0.77 0.03 -0.00458739 -0.000550698 -4.51042e-05 0.238268
0.78 0.03 -0.00406511 -0.000533516 -3.96744e-05 0.21449
0.79 0.03 -0.00356043 -0.000512907 -3.44339e-05 0.191449
0.8 0.03 -0.00307649 -0.000489009 -2.94163e-05 0.169279
0.81 0.03 -0.0026163 -0.000461996 -2.46537e-05 0.148107
0.82 0.03 -0.00218269 -0.000432073 -2.01764e-05 0.128052
0.83 0.03 -0.00177826 -0.000399478 -1.60123e-05 0.109223
0.84 0.03 -0.00140537 -0.000364483 -1.21868e-05 0.091717
0.85 0.03 -0.00106612 -0.000327397 -8.72262e-06 0.0756193
0.86 0.03 -0.000762264 -0.000288564 -5.63891e-06 0.0609997
0.87 0.03 -0.000495237 -0.000248369 -2.95136e-06 0.0479117
0.88 0.03 -0.000266063 -0.000207246 -6.71542e-07 0.0363899
0.89 0.03 -7.53292e-05 -0.000165683 1.19355e-06 0.0264478
0.9 0.03 7.68747e-05 -0.000124236 2.6421e-06 0.0180749
0.91 0.03 0.000191025 -8.3554e-05 3.67826e-06 0.0112335
0.92 0.03 0.000268252 -4.43995e-05 4.31316e-06 0.00585492
0.93 0.03 0.000310447 -7.69563e-06 4.56624e-06 0.00183504
0.94 0.03 0.000320403 2.5418e-05 4.46707e-06 -0.00096992
0.95 0.03 0.000301994 5.35053e-05 4.05787e-06 -0.0027475
0.96 0.03 0.000260381 7.47342e-05 3.39696e-06 -0.00372991
0.97 0.03 0.000202257 8.67822e-05 2.56319e-06 -0.00418673
0.98 0.03 0.000136064 8.6847e-05 1.66131e-06 -0.00439758
0.99 0.03 7.20847e-05 7.20806e-05 8.26246e-07 -0.00458112
1 0.03 2.22712e-05 4.13123e-05 2.197e-07 -0.00474096
0 0.04 0 0 -0.00972075 0
0.01 0.04 0 0 0 -0.00959391
0.02 0.04 1.73441e-05 -6.4011e-05 4.79695e-07 -0.00265679
0.03 0.04 3.83248e-05 -7.27328e-05 1.28022e-06 0.00355822
0.04 0.04 4.2358e-05 -4.19275e-05 1.93435e-06 0.00937864
0.05 0.04 1.50798e-05 1.55084e-05 2.11876e-06 0.0151583
0.06 0.04 -5.33567e-05 8.96071e-05 1.62417e-06 0.0212387
0.07 0.04 -0.000169241 0.000173028 3.26611e-07 0.0279108
0.08 0.04 -0.000336056 0.000260533 -1.8364e-06 0.0353996
0.09 0.04 -0.000555127 0.000348459 -4.88405e-06 0.0438633
0.1 0.04 -0.000826159 0.000434292 -8.8056e-06 0.0534014
0.11 0.04 -0.00114767 0.000516337 -1.35699e-05 0.0640649
0.12 0.04 -0.00151734 0.000593491 -1.91324e-05 0.0758657
0.13 0.04 -0.00193228 0.00066507 -2.54397e-05 0.0887857
0.14 0.04 -0.00238922 0.000730697 -3.24338e-05 0.102784
0.15 0.04 -0.00288467 0.000790207 -4.00537e-05 0.117803
0.16 0.04 -0.00341503 0.000843592 -4.82379e-05 0.133772
0.17 0.04 -0.00397669 0.000890948 -5.69255e-05 0.150613
0.18 0.04 -0.00456606 0.000932443 -6.60569e-05 0.168241
0.19 0.04 -0.00517962 0.00096829 -7.55744e-05 0.186569
0.2 0.04 -0.00581398 0.000998724 -8.54226e-05 0.205507
0.21 0.04 -0.00646585 0.00102399 -9.55488e-05 0.224964
0.22 0.04 -0.00713206 0.00104434 -0.000105902 0.244852
0.23 0.04 -0.00780958 0.00105999 -0.000116436 0.26508
0.24 0.04 -0.00849548 0.00107116 -0.000127102 0.285562
0.25 0.04 -0.00918698 0.00107805 -0.000137859 0.306211
0.26 0.04 -0.00988136 0.00108082 -0.000148663 0.326943
0.27 0.04 -0.010576 0.00107962 -0.000159475 0.347675
0.28 0.04 -0.0112684 0.00107457 -0.000170255 0.368328
0.29 0.04 -0.0119561 0.00106575 -0.000180966 0.388822
0.3 0.04 -0.0126366 0.00105326 -0.00019157 0.409078
0.31 0.04 -0.0133076 0.00103713 -0.000202031 0.429022
0.32 0.04 -0.0139667 0.0010174 -0.000212313 0.448578
0.33 0.04 -0.0146115 0.000994094 -0.000222379 0.467672
0.34 0.04 -0.0152399 0.000967224 -0.000232195 0.486233
0.35 0.04 -0.0158494 0.00093679 -0.000241724 0.504189
0.36 0.04 -0.0164378 0.000902792 -0.00025093 0.52147
0.37 0.04 -0.0170028 0.000865232 -0.000259779 0.538007
0.38 0.04 -0.0175421 0.000824112 -0.000268235 0.553733
0.39 0.04 -0.0180535 0.000779444 -0.000276261 0.568582
0.4 0.04 -0.0185346 0.000731253 -0.000283823 0.582488
0.41 0.04 -0.0189833 0.000679577 -0.000290886 0.595391
0.42 0.04 -0.0193975 0.000624472 -0.000297415 0.60723
0.43 0.04 -0.0197749 0.000566016 -0.000303375 0.617946
0.44 0.04 -0.0201136 0.000504311 -0.000308735 0.627486
0.45 0.04 -0.0204115 0.000439485 -0.000313462 0.635797
0.46 0.04 -0.0206668 0.000371694 -0.000317525 0.642831
0.47 0.04 -0.0208777 0.000301124 -0.000320895 0.648545
0.48 0.04 -0.0210426 0.000227994 -0.000323547 0.652899
0.49 0.04 -0.02116 0.000152553 -0.000325455 0.655857
0.5 0.04 -0.0212286 7.50833e-05 -0.000326598 0.657392
0.51 0.04 -0.0212472 -4.09878e-06 -0.000326956 0.657478
0.52 0.04 -0.021215 -8.46461e-05 -0.000326516 0.6561
0.53 0.04 -0.0211314 -0.00016618 -0.000325263 0.653245
0.54 0.04 -0.0209957 -0.000248292 -0.000323192 0.64891
0.55 0.04 -0.020808 -0.000330546 -0.000320297 0.643099
0.56 0.04 -0.0205684 -0.000412481 -0.000316581 0.635822
0.57 0.04 -0.0202772 -0.000493614 -0.000312047 0.627098
0.58 0.04 -0.0199351 -0.000573444 -0.000306708 0.616953
0.59 0.04 -0.0195432 -0.000651454 -0.000300578 0.605423
0.6 0.04 -0.0191029 -0.000727117 -0.000293679 0.592551
0.61 0.04 -0.0186159 -0.000799902 -0.000286036 0.578387
0.62 0.04 -0.018084 -0.000869276 -0.000277681 0.562992
0.63 0.04 -0.0175098 -0.000934712 -0.00026865 0.546431
0.64 0.04 -0.0168958 -0.000995693 -0.000258986 0.528782
0.65 0.04 -0.0162449 -0.00105172 -0.000248736 0.510126
0.66 0.04 -0.0155605 -0.00110231 -0.000237952 0.490552
0.67 0.04 -0.0148461 -0.00114702 -0.00022669 0.470159
0.68 0.04 -0.0141055 -0.00118544 -0.000215011 0.449048
0.69 0.04 -0.0133427 -0.00121717 -0.000202981 0.427328
0.7 0.04 -0.012562 -0.0012419 -0.000190668 0.405112
0.71 0.04 -0.0117678 -0.00125934 -0.000178143 0.382518
0.72 0.04 -0.0109648 -0.00126926 -0.000165481 0.359667
0.73 0.04 -0.0101577 -0.00127148 -0.000152758 0.336682
0.74 0.04 -0.00935121 -0.00126591 -0.000140051 0.313689
0.75 0.04 -0.00855024 -0.0012525 -0.00012744 0.290814
0.76 0.04 -0.00775963 -0.00123126 -0.000115001 0.268182
0.77 0.04 -0.0069842 -0.00120229 -0.000102814 0.245917
0.78 0.04 -0.00622868 -0.00116576 -9.09554e-05 0.224143
0.79 0.04 -0.00549767 -0.00112189 -7.94991e-05 0.202976
0.8 0.04 -0.00479561 -0.00107098 -6.85176e-05 0.182529
0.81 0.04 -0.00412674 -0.00101342 -5.80795e-05 0.162911
0.82 0.04 -0.00349501 -0.000949642 -4.82493e-05 0.144219
0.83 0.04 -0.00290409 -0.000880175 -3.90867e-05 0.126547
0.84 0.04 -0.00235728 -0.000805609 -3.06458e-05 0.109973
0.85 0.04 -0.00185751 -0.000726618 -2.29745e-05 0.0945661
0.86 0.04 -0.00140722 -0.000643953 -1.61135e-05 0.0803823
0.87 0.04 -0.00100838 -0.000558459 -1.00955e-05 0.0674613
0.88 0.04 -0.000662374 -0.000471081 -4.94434e-06 0.0558257
0.89 0.04 -0.000369976 -0.000382881 -6.73903e-07 0.0454787
0.9 0.04 -0.000131246 -0.000295068 2.71325e-06 0.0364019
0.91 0.04 5.45447e-05 -0.00020903 5.22744e-06 0.0285523
0.92 0.04 0.000189024 -0.000126382 6.89382e-06 0.0218597
0.93 0.04 0.000274844 -4.90393e-05 7.75505e-06 0.0162244
0.94 0.04 0.000315831 2.07003e-05 7.87459e-06 0.011515
0.95 0.04 0.000317164 8.00451e-05 7.34103e-06 0.00756828
0.96 0.04 0.000285562 0.000125595 6.27368e-06 0.00419368
0.97 0.04 0.000229479 0.000153263 4.82914e-06 0.00118491
0.98 0.04 0.000159266 0.000158362 3.20842e-06 -0.00165292
0.99 0.04 8.72986e-05 0.000136119 1.66189e-06 -0.00445366
1 0.04 2.82146e-05 8.30944e-05 4.86037e-07 -0.00721432
0 0.05 0 0 -0.0156798 0
0.01 0.05 0 0 0 -0.0125112
0.02 0.05 9.95207e-06 -7.79374e-05 6.25561e-07 -0.00214935
0.03 0.05 1.14641e-05 -7.49145e-05 1.55875e-06 0.00695853
0.04 0.05 -1.54859e-05 -1.46199e-05 2.12385e-06 0.0152652
0.05 0.05 -8.51535e-05 8.46848e-05 1.85113e-06 0.0231609
0.06 0.05 -0.00020746 0.000208988 4.30138e-07 0.030989
0.07 0.05 -0.000388866 0.000347738 -2.32863e-06 0.0390405
0.08 0.05 -0.000633027 0.000493146 -6.52464e-06 0.0475498
0.09 0.05 -0.000941356 0.000639562 -1.21916e-05 0.0566946
0.1 0.05 -0.00131351 0.000782961 -1.93159e-05 0.0666015
0.11 0.05 -0.00174781 0.000920536 -2.78508e-05 0.077352
0.12 0.05 -0.00224157 0.00105039 -3.77266e-05 0.0889902
0.13 0.05 -0.00279144 0.00117128 -4.88585e-05 0.101529
0.14 0.05 -0.00339353 0.00128249 -6.11523e-05 0.114959
0.15 0.05 -0.00404367 0.00138365 -7.45083e-05 0.129248
0.16 0.05 -0.00473752 0.00147464 -8.88252e-05 0.144351
0.17 0.05 -0.00547066 0.00155556 -0.000104001 0.160211
0.18 0.05 -0.00623868 0.00162662 -0.000119936 0.176764
0.19 0.05 -0.00703722 0.00168812 -0.000136534 0.193939
0.2 0.05 -0.00786203 0.00174041 -0.000153699 0.21166
0.21 0.05 -0.00870897 0.00178385 -0.000171342 0.229848
0.22 0.05 -0.00957404 0.00181884 -0.000189376 0.248425
0.23 0.05 -0.0104534 0.00184572 -0.000207718 0.267309
0.24 0.05 -0.0113432 0.00186483 -0.00022629 0.286421
0.25 0.05 -0.01224 0.0018765 -0.000245015 0.30568
0.26 0.05 -0.0131402 0.00188099 -0.00026382 0.325007
0.27 0.05 -0.0140405 0.00187854 -0.000282635 0.344324
0.28 0.05 -0.0149375 0.00186934 -0.000301391 0.363554
0.29 0.05 -0.0158281 0.00185356 -0.000320021 0.38262
0.3 0.05 -0.0167091 0.00183132 -0.000338462 0.401449
0.31 0.05 -0.0175773 0.00180271 -0.000356647 0.419967
0.32 0.05 -0.0184298 0.0017678 -0.000374516 0.438104
0.33 0.05 -0.0192635 0.00172664 -0.000392003 0.455788
0.34 0.05 -0.0200754 0.00167924 -0.000409048 0.472951
0.35 0.05 -0.0208624 0.00162563 -0.000425588 0.489527
0.36 0.05 -0.0216217 0.00156582 -0.000441561 0.505448
0.37 0.05 -0.0223503 0.00149982 -0.000456904 0.520652
0.38 0.05 -0.0230452 0.00142765 -0.000471557 0.535076
0.39 0.05 -0.0237035 0.00134935 -0.000485457 0.548661
0.4 0.05 -0.0243224 0.00126497 -0.000498543 0.561348
0.41 0.05 -0.024899 0.0011746 -0.000510756 0.573081
0.42 0.05 -0.0254306 0.00107834 -0.000522035 0.583808
0.43 0.05 -0.0259145 0.000976347 -0.000532322 0.593477
0.44 0.05 -0.026348 0.000868806 -0.000541562 0.602044
0.45 0.05 -0.0267287 0.000755952 -0.000549698 0.609462
0.46 0.05 -0.0270542 0.000638064 -0.00055668 0.615693
0.47 0.05 -0.0273223 0.000515474 -0.000562459 0.6207
0.48 0.05 -0.027531 0.000388567 -0.000566989 0.624452
0.49 0.05 -0.0276784 0.00025778 -0.00057023 0.626923
0.5 0.05 -0.027763 0.000123605 -0.000572145 0.628089
0.51 0.05 -0.0277834 -1.34095e-05 -0.000572702 0.627935
0.52 0.05 -0.0277384 -0.000152664 -0.000571876 0.626449
0.53 0.05 -0.0276274 -0.000293505 -0.000569648 0.623627
0.54 0.05 -0.0274497 -0.000435233 -0.000566006 0.619469
0.55 0.05 -0.0272054 -0.000577101 -0.000560943 0.613984
0.56 0.05 -0.0268945 -0.00071832 -0.000554463 0.607184
0.57 0.05 -0.0265177 -0.000858067 -0.000546577 0.59909
0.58 0.05 -0.026076 -0.000995488 -0.000537302 0.58973
0.59 0.05 -0.0255707 -0.00112971 -0.000526666 0.579137
0.6 0.05 -0.0250035 -0.00125983 -0.000514707 0.567353
0.61 0.05 -0.0243767 -0.00138495 -0.00050147 0.554424
0.62 0.05 -0.0236928 -0.00150417 -0.000487008 0.540406
0.63 0.05 -0.0229548 -0.0016166 -0.000471386 0.525359
0.64 0.05 -0.022166 -0.00172137 -0.000454676 0.509349
0.65 0.05 -0.0213304 -0.00181763 -0.000436958 0.492451
0.66 0.05 -0.0204519 -0.00190457 -0.000418323 0.474741
0.67 0.05 -0.019535 -0.00198145 -0.000398867 0.456306
0.68 0.05 -0.0185847 -0.00204755 -0.000378694 0.437232
0.69 0.05 -0.017606 -0.00210225 -0.000357916 0.417614
0.7 0.05 -0.0166042 -0.00214499 -0.000336649 0.397549
0.71 0.05 -0.0155849 -0.00217528 -0.000315016 0.377136
0.72 0.05 -0.0145541 -0.00219276 -0.000293143 0.356479
0.73 0.05 -0.0135176 -0.00219714 -0.000271161 0.335683
0.74 0.05 -0.0124814 -0.00218823 -0.0002492 0.314853
0.75 0.05 -0.0114516 -0.00216596 -0.000227396 0.294096
0.76 0.05 -0.0104345 -0.00213038 -0.000205881 0.273517
0.77 0.05 -0.00943586 -0.00208165 -0.000184788 0.253221
0.78 0.05 -0.00846183 -0.00202005 -0.000164248 0.23331
0.79 0.05 -0.00751812 -0.00194597 -0.000144387 0.213883
0.8 0.05 -0.00661033 -0.00185994 -0.000125329 0.195033
0.81 0.05 -0.00574374 -0.0017626 -0.000107188 0.176851
0.82 0.05 -0.00492335 -0.00165472 -9.00766e-05 0.159417
0.83 0.05 -0.00415372 -0.0015372 -7.40941e-05 0.142806
0.84 0.05 -0.00343901 -0.00141106 -5.93326e-05 0.127084
0.85 0.05 -0.00278284 -0.00127746 -4.58728e-05 0.112304
0.86 0.05 -0.00218828 -0.0011377 -3.37834e-05 0.0985092
0.87 0.05 -0.00165776 -0.000993218 -2.3119e-05 0.0857274
0.88 0.05 -0.00119299 -0.00084565 -1.39191e-05 0.0739713
0.89 0.05 -0.000794899 -0.000696812 -6.20602e-06 0.0632362
0.9 0.05 -0.000463545 -0.000548759 1.7128e-08 0.0534977
0.91 0.05 -0.00019801 -0.000403826 4.76911e-06 0.0447102
0.92 0.05 3.70615e-06 -0.0002647 8.0936e-06 0.0368042
0.93 0.05 0.000144816 -0.000134504 1.00631e-05 0.0296859
0.94 0.05 0.000229882 -1.6904e-05 1.07837e-05 0.0232361
0.95 0.05 0.000264972 8.3773e-05 1.04011e-05 0.0173118
0.96 0.05 0.000257816 0.000162418 9.10819e-06 0.0117516
0.97 0.05 0.000217968 0.000213078 7.15276e-06 0.00638587
0.98 0.05 0.000156961 0.000229027 4.84663e-06 0.00105473
0.99 0.05 8.85555e-05 0.000203132 2.57222e-06 -0.00436641
1 0.05 2.92943e-05 0.000128611 7.8399e-07 -0.00994211
0 0.06 0 0 -0.0214384 0
0.01 0.06 0 0 0 -0.0135747
0.02 0.06 -3.4508e-07 -7.5475e-05 6.78735e-07 -0.000387775
0.03 0.06 -2.49433e-05 -4.72947e-05 1.5095e-06 0.0111599
0.04 0.06 -9.15317e-05 5.46902e-05 1.62462e-06 0.0215624
0.05 0.06 -0.000213112 0.000207483 4.1568e-07 0.0312311
0.06 0.06 -0.000398852 0.00039332 -2.52505e-06 0.0405161
0.07 0.06 -0.000654748 0.000598595 -7.45073e-06 0.049713
0.08 0.06 -0.000984156 0.000813022 -1.4497e-05 0.0590644
0.09 0.06 -0.00138826 0.00102894 -2.37112e-05 0.0687627
0.1 0.06 -0.00186648 0.00124074 -3.50758e-05 0.0789542
0.11 0.06 -0.00241686 0.0014444 -4.8526e-05 0.0897434
0.12 0.06 -0.00303638 0.00163712 -6.39639e-05 0.101199
0.13 0.06 -0.00372124 0.00181702 -8.12685e-05 0.113361
0.14 0.06 -0.00446706 0.00198293 -0.000100304 0.126241
0.15 0.06 -0.00526911 0.0021342 -0.000120927 0.139833
0.16 0.06 -0.00612242 0.00227058 -0.000142988 0.154113
0.17 0.06 -0.00702189 0.00239211 -0.000166339 0.169042
0.18 0.06 -0.00796243 0.002499 -0.00019083 0.184574
0.19 0.06 -0.00893895 0.00259164 -0.000216319 0.200651
0.2 0.06 -0.00994647 0.00267048 -0.000242663 0.217213
0.21 0.06 -0.0109801 0.00273601 -0.000269728 0.234191
0.22 0.06 -0.0120351 0.00278874 -0.000297383 0.251516
0.23 0.06 -0.0131068 0.00282918 -0.000325503 0.269115
0.24 0.06 -0.0141908 0.00285781 -0.000353967 0.286916
0.25 0.06 -0.0152828 0.00287506 -0.000382659 0.304843
0.26 0.06 -0.0163784 0.00288132 -0.000411468 0.322823
0.27 0.06 -0.0174738 0.00287693 -0.000440285 0.340781
0.28 0.06 -0.0185647 0.00286218 -0.000469006 0.358645
0.29 0.06 -0.0196473 0.0028373 -0.000497528 0.376342
0.3 0.06 -0.0207179 0.00280248 -0.000525752 0.393802
0.31 0.06 -0.0217725 0.00275787 -0.000553578 0.410954
0.32 0.06 -0.0228075 0.00270356 -0.000580909 0.427731
0.33 0.06 -0.0238192 0.00263964 -0.000607649 0.444066
0.34 0.06 -0.0248039 0.00256616 -0.000633701 0.459894
0.35 0.06 -0.025758 0.00248316 -0.000658972 0.475152
0.36 0.06 -0.0266779 0.00239066 -0.000683364 0.489779
0.37 0.06 -0.0275599 0.00228871 -0.000706784 0.503717
0.38 0.06 -0.0284007 0.00217736 -0.000729138 0.516907
0.39 0.06 -0.0291966 0.00205669 -0.000750331 0.529297
0.4 0.06 -0.0299442 0.00192678 -0.000770271 0.540834
0.41 0.06 -0.0306401 0.0017878 -0.000788866 0.551468
0.42 0.06 -0.0312811 0.00163993 -0.000806027 0.561155
0.43 0.06 -0.0318638 0.0014834 -0.000821664 0.569849
0.44 0.06 -0.0323853 0.00131854 -0.000835694 0.577513
0.45 0.06 -0.0328425 0.0011457 -0.000848035 0.584109
0.46 0.06 -0.0332328 0.000965328 -0.000858608 0.589605
0.47 0.06 -0.0335534 0.000777941 -0.000867341 0.593973
0.48 0.06 -0.033802 0.000584133 -0.000874166 0.597188
0.49 0.06 -0.0339765 0.000384578 -0.000879023 0.599231
0.5 0.06 -0.0340751 0.00018003 -0.000881857 0.600085
0.51 0.06 -0.0340961 -2.8677e-05 -0.000882623 0.599742
0.52 0.06 -0.0340383 -0.00024063 -0.000881283 0.598196
0.53 0.06 -0.0339009 -0.00045484 -0.00087781 0.595446