TITLE     = "Lid Driven Flow"
VARIABLES = "X"
"Y"
"U"
"V"
"psi"
"xi"
GEOMETRY
F=POINT
CS=GRID
X=-0.0342645408622,Y=0.5,Z=0
C=BLACK 
S=LOCAL
L=SOLID
PL=2
LT=0.1
CLIPPING=CLIPTOVIEWPORT
DRAWORDER=AFTERDATA
MFC=""
AST=PLAIN
T=LINE
DT=SINGLE 
1
2
0 0
1.07400870323 0
ZONE T="Extracted Points"
 STRANDID=0, SOLUTIONTIME=0
 I=278, J=1, K=1, ZONETYPE=Ordered
 DATAPACKING=BLOCK
 DT=(SINGLE SINGLE SINGLE SINGLE SINGLE SINGLE )
 1.655482687E-003 5.247484893E-003 8.839487098E-003 1.243148930E-002 1.602349244E-002
 1.961549371E-002 2.320749685E-002 2.679949999E-002 3.039150126E-002 3.398350254E-002
 3.757550567E-002 4.116750881E-002 4.475951195E-002 4.835151508E-002 5.194351450E-002
 5.553551763E-002 5.912752077E-002 6.271952391E-002 6.631152332E-002 6.990353018E-002
 7.349552959E-002 7.708752900E-002 8.067953587E-002 8.427153528E-002 8.786354214E-002
 9.145554155E-002 9.504754096E-002 9.863954782E-002 1.022315472E-001 1.058235541E-001
 1.094155535E-001 1.130075529E-001 1.165995598E-001 1.201915592E-001 1.237835661E-001
 1.273755580E-001 1.309675723E-001 1.345595717E-001 1.381515712E-001 1.417435706E-001
 1.453355700E-001 1.489275843E-001 1.525195837E-001 1.561115831E-001 1.597035825E-001
 1.632955819E-001 1.668875962E-001 1.704795957E-001 1.740715951E-001 1.776635945E-001
 1.812555939E-001 1.848476082E-001 1.884396076E-001 1.920316070E-001 1.956236064E-001
 1.992156059E-001 2.028076202E-001 2.063996196E-001 2.099916190E-001 2.135836184E-001
 2.171756178E-001 2.207676321E-001 2.243596315E-001 2.279516309E-001 2.315436304E-001
 2.351356298E-001 2.387276441E-001 2.423196435E-001 2.459116429E-001 2.495036423E-001
 2.530956566E-001 2.566876411E-001 2.602796555E-001 2.638716400E-001 2.674636543E-001
 2.710556686E-001 2.746476531E-001 2.782396674E-001 2.818316519E-001 2.854236662E-001
 2.890156806E-001 2.926076651E-001 2.961996794E-001 2.997916639E-001 3.033836782E-001
 3.069756925E-001 3.105676770E-001 3.141596913E-001 3.177516758E-001 3.213436902E-001
 3.249357045E-001 3.285276890E-001 3.321197033E-001 3.357116878E-001 3.393037021E-001
 3.428957164E-001 3.464877009E-001 3.500797153E-001 3.536716998E-001 3.572637141E-001
 3.608557284E-001 3.644477129E-001 3.680397272E-001 3.716317117E-001 3.752237260E-001
 3.788157403E-001 3.824077249E-001 3.859997392E-001 3.895917237E-001 3.931837380E-001
 3.967757523E-001 4.003677368E-001 4.039597511E-001 4.075517356E-001 4.111437500E-001
 4.147357643E-001 4.183277488E-001 4.219197631E-001 4.255117476E-001 4.291037619E-001
 4.326957762E-001 4.362877607E-001 4.398797750E-001 4.434717596E-001 4.470637739E-001
 4.506557882E-001 4.542477727E-001 4.578397870E-001 4.614317715E-001 4.650237858E-001
 4.686158001E-001 4.722077847E-001 4.757997990E-001 4.793917835E-001 4.829837978E-001
 4.865758121E-001 4.901677966E-001 4.937598109E-001 4.973517954E-001 5.009437799E-001
 5.045357943E-001 5.081278086E-001 5.117198229E-001 5.153118372E-001 5.189037919E-001
 5.224958062E-001 5.260878205E-001 5.296798348E-001 5.332718492E-001 5.368638039E-001
 5.404558182E-001 5.440478325E-001 5.476398468E-001 5.512318611E-001 5.548238158E-001
 5.584158301E-001 5.620078444E-001 5.655998588E-001 5.691918731E-001 5.727838278E-001
 5.763758421E-001 5.799678564E-001 5.835598707E-001 5.871518850E-001 5.907438397E-001
 5.943358541E-001 5.979278684E-001 6.015198827E-001 6.051118970E-001 6.087038517E-001
 6.122958660E-001 6.158878803E-001 6.194798946E-001 6.230719090E-001 6.266638637E-001
 6.302558780E-001 6.338478923E-001 6.374399066E-001 6.410319209E-001 6.446238756E-001
 6.482158899E-001 6.518079042E-001 6.553999186E-001 6.589919329E-001 6.625838876E-001
 6.661759019E-001 6.697679162E-001 6.733599305E-001 6.769519448E-001 6.805438995E-001
 6.841359138E-001 6.877279282E-001 6.913199425E-001 6.949119568E-001 6.985039115E-001
 7.020959258E-001 7.056879401E-001 7.092799544E-001 7.128719687E-001 7.164639235E-001
 7.200559378E-001 7.236479521E-001 7.272399664E-001 7.308319807E-001 7.344239354E-001
 7.380159497E-001 7.416079640E-001 7.451999784E-001 7.487919927E-001 7.523839474E-001
 7.559759617E-001 7.595679760E-001 7.631599903E-001 7.667520046E-001 7.703439593E-001
 7.739359736E-001 7.775279880E-001 7.811200023E-001 7.847120166E-001 7.883039713E-001
 7.918959856E-001 7.954879999E-001 7.990800142E-001 8.026720285E-001 8.062639832E-001
 8.098559976E-001 8.134480119E-001 8.170400262E-001 8.206320405E-001 8.242239952E-001
 8.278160095E-001 8.314080238E-001 8.350000381E-001 8.385920525E-001 8.421840072E-001
 8.457760215E-001 8.493680358E-001 8.529600501E-001 8.565520644E-001 8.601440191E-001
 8.637360334E-001 8.673280478E-001 8.709200621E-001 8.745120764E-001 8.781040311E-001
 8.816960454E-001 8.852880597E-001 8.888800740E-001 8.924720883E-001 8.960640430E-001
 8.996560574E-001 9.032480717E-001 9.068400860E-001 9.104321003E-001 9.140240550E-001
 9.176160693E-001 9.212080836E-001 9.248000979E-001 9.283921123E-001 9.319840670E-001
 9.355760813E-001 9.391680956E-001 9.427601099E-001 9.463521242E-001 9.499440789E-001
 9.535360932E-001 9.571281075E-001 9.607201219E-001 9.643121362E-001 9.679040909E-001
 9.714961052E-001 9.750881195E-001 9.786801338E-001 9.822721481E-001 9.858641028E-001
 9.894561172E-001 9.930481315E-001 9.966401458E-001
 5.000000000E-001 5.000000000E-001 5.000000000E-001 5.000000000E-001 5.000000000E-001
 5.000000000E-001 5.000000000E-001 5.000000000E-001 5.000000000E-001 5.000000000E-001
 5.000000000E-001 5.000000000E-001 5.000000000E-001 5.000000000E-001 5.000000000E-001
 5.000000000E-001 5.000000000E-001 5.000000000E-001 5.000000000E-001 5.000000000E-001
 5.000000000E-001 5.000000000E-001 5.000000000E-001 5.000000000E-001 5.000000000E-001
 5.000000000E-001 5.000000000E-001 5.000000000E-001 5.000000000E-001 5.000000000E-001
 5.000000000E-001 5.000000000E-001 5.000000000E-001 5.000000000E-001 5.000000000E-001
 5.000000000E-001 5.000000000E-001 5.000000000E-001 5.000000000E-001 5.000000000E-001
 5.000000000E-001 5.000000000E-001 5.000000000E-001 5.000000000E-001 5.000000000E-001
 5.000000000E-001 5.000000000E-001 5.000000000E-001 5.000000000E-001 5.000000000E-001
 5.000000000E-001 5.000000000E-001 5.000000000E-001 5.000000000E-001 5.000000000E-001
 5.000000000E-001 5.000000000E-001 5.000000000E-001 5.000000000E-001 5.000000000E-001
 5.000000000E-001 5.000000000E-001 5.000000000E-001 5.000000000E-001 5.000000000E-001
 5.000000000E-001 5.000000000E-001 5.000000000E-001 5.000000000E-001 5.000000000E-001
 5.000000000E-001 5.000000000E-001 5.000000000E-001 5.000000000E-001 5.000000000E-001
 5.000000000E-001 5.000000000E-001 5.000000000E-001 5.000000000E-001 5.000000000E-001
 5.000000000E-001 5.000000000E-001 5.000000000E-001 5.000000000E-001 5.000000000E-001
 5.000000000E-001 5.000000000E-001 5.000000000E-001 5.000000000E-001 5.000000000E-001
 5.000000000E-001 5.000000000E-001 5.000000000E-001 5.000000000E-001 5.000000000E-001
 5.000000000E-001 5.000000000E-001 5.000000000E-001 5.000000000E-001 5.000000000E-001
 5.000000000E-001 5.000000000E-001 5.000000000E-001 5.000000000E-001 5.000000000E-001
 5.000000000E-001 5.000000000E-001 5.000000000E-001 5.000000000E-001 5.000000000E-001
 5.000000000E-001 5.000000000E-001 5.000000000E-001 5.000000000E-001 5.000000000E-001
 5.000000000E-001 5.000000000E-001 5.000000000E-001 5.000000000E-001 5.000000000E-001
 5.000000000E-001 5.000000000E-001 5.000000000E-001 5.000000000E-001 5.000000000E-001
 5.000000000E-001 5.000000000E-001 5.000000000E-001 5.000000000E-001 5.000000000E-001
 5.000000000E-001 5.000000000E-001 5.000000000E-001 5.000000000E-001 5.000000000E-001
 5.000000000E-001 5.000000000E-001 5.000000000E-001 5.000000000E-001 5.000000000E-001
 5.000000000E-001 5.000000000E-001 5.000000000E-001 5.000000000E-001 5.000000000E-001
 5.000000000E-001 5.000000000E-001 5.000000000E-001 5.000000000E-001 5.000000000E-001
 5.000000000E-001 5.000000000E-001 5.000000000E-001 5.000000000E-001 5.000000000E-001
 5.000000000E-001 5.000000000E-001 5.000000000E-001 5.000000000E-001 5.000000000E-001
 5.000000000E-001 5.000000000E-001 5.000000000E-001 5.000000000E-001 5.000000000E-001
 5.000000000E-001 5.000000000E-001 5.000000000E-001 5.000000000E-001 5.000000000E-001
 5.000000000E-001 5.000000000E-001 5.000000000E-001 5.000000000E-001 5.000000000E-001
 5.000000000E-001 5.000000000E-001 5.000000000E-001 5.000000000E-001 5.000000000E-001
 5.000000000E-001 5.000000000E-001 5.000000000E-001 5.000000000E-001 5.000000000E-001
 5.000000000E-001 5.000000000E-001 5.000000000E-001 5.000000000E-001 5.000000000E-001
 5.000000000E-001 5.000000000E-001 5.000000000E-001 5.000000000E-001 5.000000000E-001
 5.000000000E-001 5.000000000E-001 5.000000000E-001 5.000000000E-001 5.000000000E-001
 5.000000000E-001 5.000000000E-001 5.000000000E-001 5.000000000E-001 5.000000000E-001
 5.000000000E-001 5.000000000E-001 5.000000000E-001 5.000000000E-001 5.000000000E-001
 5.000000000E-001 5.000000000E-001 5.000000000E-001 5.000000000E-001 5.000000000E-001
 5.000000000E-001 5.000000000E-001 5.000000000E-001 5.000000000E-001 5.000000000E-001
 5.000000000E-001 5.000000000E-001 5.000000000E-001 5.000000000E-001 5.000000000E-001
 5.000000000E-001 5.000000000E-001 5.000000000E-001 5.000000000E-001 5.000000000E-001
 5.000000000E-001 5.000000000E-001 5.000000000E-001 5.000000000E-001 5.000000000E-001
 5.000000000E-001 5.000000000E-001 5.000000000E-001 5.000000000E-001 5.000000000E-001
 5.000000000E-001 5.000000000E-001 5.000000000E-001 5.000000000E-001 5.000000000E-001
 5.000000000E-001 5.000000000E-001 5.000000000E-001 5.000000000E-001 5.000000000E-001
 5.000000000E-001 5.000000000E-001 5.000000000E-001 5.000000000E-001 5.000000000E-001
 5.000000000E-001 5.000000000E-001 5.000000000E-001 5.000000000E-001 5.000000000E-001
 5.000000000E-001 5.000000000E-001 5.000000000E-001 5.000000000E-001 5.000000000E-001
 5.000000000E-001 5.000000000E-001 5.000000000E-001 5.000000000E-001 5.000000000E-001
 5.000000000E-001 5.000000000E-001 5.000000000E-001 5.000000000E-001 5.000000000E-001
 5.000000000E-001 5.000000000E-001 5.000000000E-001
 0.000000000E+000 0.000000000E+000 0.000000000E+000 -7.039723278E-005 -1.743939647E-004
 -2.783907112E-004 -5.542336148E-004 -8.506768500E-004 -1.166459289E-003 -1.640337869E-003
 -2.114216331E-003 -2.641067142E-003 -3.277921816E-003 -3.914776258E-003 -4.632296972E-003
 -5.418238230E-003 -6.204179022E-003 -7.092928980E-003 -8.014662191E-003 -8.936394937E-003
 -9.977912530E-003 -1.102273632E-002 -1.208857447E-002 -1.324447989E-002 -1.440038625E-002
 -1.559668314E-002 -1.685226895E-002 -1.810785197E-002 -1.941871271E-002 -2.076327056E-002
 -2.210783027E-002 -2.351846546E-002 -2.494193986E-002 -2.636912465E-002 -2.786217630E-002
 -2.935522795E-002 -3.086468019E-002 -3.241861612E-002 -3.397255018E-002 -3.555215150E-002
 -3.715896234E-002 -3.876577318E-002 -4.040453210E-002 -4.205689207E-002 -4.370924830E-002
 -4.539722949E-002 -4.708841443E-002 -4.878396913E-002 -5.050787702E-002 -5.223178864E-002
 -5.396519229E-002 -5.571625754E-002 -5.746732280E-002 -5.923096463E-002 -6.100426242E-002
 -6.277756393E-002 -6.456473470E-002 -6.635577977E-002 -6.814682484E-002 -6.995158643E-002
 -7.175639272E-002 -7.356337458E-002 -7.537837327E-002 -7.719337940E-002 -7.901143283E-002
 -8.083355427E-002 -8.265566826E-002 -8.448056877E-002 -8.630698919E-002 -8.813341707E-002
 -8.996145427E-002 -9.178975224E-002 -9.361802787E-002 -9.544606507E-002 -9.727410227E-002
 -9.910149872E-002 -1.009273529E-001 -1.027531996E-001 -1.045772061E-001 -1.063994318E-001
 -1.082216576E-001 -1.100399643E-001 -1.118567958E-001 -1.136736274E-001 -1.154840291E-001
 -1.172940433E-001 -1.191028655E-001 -1.209053323E-001 -1.227078065E-001 -1.245069131E-001
 -1.263003945E-001 -1.280938834E-001 -1.298814267E-001 -1.316648573E-001 -1.334482878E-001
 -1.352227330E-001 -1.369950324E-001 -1.387670636E-001 -1.405278742E-001 -1.422886699E-001
 -1.440462172E-001 -1.457933635E-001 -1.475405246E-001 -1.492814720E-001 -1.510149688E-001
 -1.527484804E-001 -1.544713825E-001 -1.561890841E-001 -1.579067856E-001 -1.596101373E-001
 -1.613116711E-001 -1.630113572E-001 -1.646949351E-001 -1.663785130E-001 -1.680557877E-001
 -1.697196066E-001 -1.713834256E-001 -1.730360985E-001 -1.746790856E-001 -1.763220578E-001
 -1.779472530E-001 -1.795665324E-001 -1.811858118E-001 -1.827811301E-001 -1.843756139E-001
 -1.859649867E-001 -1.875314564E-001 -1.890979260E-001 -1.906522363E-001 -1.921881735E-001
 -1.937241107E-001 -1.952395141E-001 -1.967420578E-001 -1.982445866E-001 -1.997166872E-001
 -2.011825889E-001 -2.026465833E-001 -2.040718943E-001 -2.054972053E-001 -2.069108039E-001
 -2.082915753E-001 -2.096723318E-001 -2.110295445E-001 -2.123610973E-001 -2.136926502E-001
 -2.149867713E-001 -2.162644565E-001 -2.175421268E-001 -2.187658101E-001 -2.199842036E-001
 -2.211942673E-001 -2.223469466E-001 -2.234996259E-001 -2.246277928E-001 -2.257089764E-001
 -2.267901748E-001 -2.278273851E-001 -2.288299203E-001 -2.298324406E-001 -2.307681590E-001
 -2.316844910E-001 -2.326008081E-001 -2.334238589E-001 -2.342460752E-001 -2.350470722E-001
 -2.357669026E-001 -2.364867479E-001 -2.371593118E-001 -2.377674282E-001 -2.383755594E-001
 -2.389060855E-001 -2.393928021E-001 -2.398795187E-001 -2.402544320E-001 -2.406103909E-001
 -2.409562618E-001 -2.411703318E-001 -2.413844168E-001 -2.415546477E-001 -2.416160703E-001
 -2.416774929E-001 -2.416568249E-001 -2.415551692E-001 -2.414535284E-001 -2.412265539E-001
 -2.409506887E-001 -2.406748235E-001 -2.402255833E-001 -2.397643775E-001 -2.392734140E-001
 -2.386157066E-001 -2.379580140E-001 -2.372244298E-001 -2.363601923E-001 -2.354959548E-001
 -2.345053256E-001 -2.334244847E-001 -2.323436588E-001 -2.310833335E-001 -2.297780067E-001
 -2.284690589E-001 -2.269309610E-001 -2.253928632E-001 -2.237996161E-001 -2.220233679E-001
 -2.202471048E-001 -2.183624804E-001 -2.163441330E-001 -2.143257856E-001 -2.121458054E-001
 -2.098839283E-001 -2.076220363E-001 -2.051468492E-001 -2.026425004E-001 -2.001153827E-001
 -1.973732561E-001 -1.946311146E-001 -1.918169707E-001 -1.888438761E-001 -1.858707964E-001
 -1.827822328E-001 -1.795903742E-001 -1.763985157E-001 -1.730554253E-001 -1.696602553E-001
 -1.662651002E-001 -1.626930535E-001 -1.591136158E-001 -1.555059403E-001 -1.517659426E-001
 -1.480259448E-001 -1.442339867E-001 -1.403614432E-001 -1.364888996E-001 -1.325549930E-001
 -1.285815537E-001 -1.246080995E-001 -1.205807552E-001 -1.165418997E-001 -1.125019714E-001
 -1.084361821E-001 -1.043703929E-001 -1.003081873E-001 -9.625640512E-002 -9.220462292E-002
 -8.818004280E-002 -8.418587595E-002 -8.019170910E-002 -7.626767457E-002 -7.237541676E-002
 -6.848315895E-002 -6.472369283E-002 -6.097829714E-002 -5.725590885E-002 -5.370179564E-002
 -5.014768615E-002 -4.667244852E-002 -4.335286096E-002 -4.003327340E-002 -3.686604276E-002
 -3.382228687E-002 -3.077852912E-002 -2.797630802E-002 -2.524688654E-002 -2.251746505E-002
 -2.013214305E-002 -1.775225997E-002 -1.544879284E-002 -1.345006842E-002 -1.145134401E-002
 -9.622809477E-003 -8.032696322E-003 -6.442583632E-003 -5.125762429E-003 -3.967699595E-003
 -2.809636993E-003 -2.034653211E-003 -1.328022801E-003
 0.000000000E+000 0.000000000E+000 0.000000000E+000 4.277404398E-003 1.059634704E-002
 1.691528969E-002 2.285744809E-002 2.875443920E-002 3.460636735E-002 4.008992016E-002
 4.557346925E-002 5.092611909E-002 5.600693449E-002 6.108774617E-002 6.595733762E-002
 7.064777613E-002 7.533821464E-002 7.974345237E-002 8.405719697E-002 8.837094158E-002
 9.233251214E-002 9.628435969E-002 1.001706794E-001 1.037761122E-001 1.073815450E-001
 1.108531579E-001 1.141283512E-001 1.174035370E-001 1.204836890E-001 1.234449372E-001
 1.264061928E-001 1.291181147E-001 1.317815781E-001 1.344300359E-001 1.368118823E-001
 1.391937435E-001 1.415040940E-001 1.436205059E-001 1.457369030E-001 1.477317810E-001
 1.495978385E-001 1.514638811E-001 1.531646401E-001 1.547950506E-001 1.564254612E-001
 1.578522027E-001 1.592606306E-001 1.606412381E-001 1.618413180E-001 1.630413979E-001
 1.641728133E-001 1.651764065E-001 1.661800146E-001 1.670790017E-001 1.678976268E-001
 1.687162369E-001 1.693981290E-001 1.700418144E-001 1.706854999E-001 1.711647063E-001
 1.716435105E-001 1.720887125E-001 1.724101901E-001 1.727316678E-001 1.729889363E-001
 1.731610000E-001 1.733330488E-001 1.734125465E-001 1.734412909E-001 1.734700352E-001
 1.733805090E-001 1.732720286E-001 1.731532067E-001 1.729118228E-001 1.726704389E-001
 1.723911613E-001 1.720208228E-001 1.716504991E-001 1.712160408E-001 1.707199812E-001
 1.702239215E-001 1.696384251E-001 1.690191776E-001 1.683999151E-001 1.676662862E-001
 1.669256091E-001 1.661659181E-001 1.653049141E-001 1.644439101E-001 1.635383070E-001
 1.625580490E-001 1.615777910E-001 1.605273783E-001 1.594282240E-001 1.583290696E-001
 1.571337730E-001 1.559153646E-001 1.546943188E-001 1.533566564E-001 1.520189941E-001
 1.506526619E-001 1.491946727E-001 1.477366835E-001 1.462236941E-001 1.446446478E-001
 1.430656016E-001 1.414049417E-001 1.397041231E-001 1.380033195E-001 1.361929774E-001
 1.343686134E-001 1.325315386E-001 1.305832416E-001 1.286349297E-001 1.266467124E-001
 1.245730445E-001 1.224993765E-001 1.203577593E-001 1.181569397E-001 1.159561276E-001
 1.136598736E-001 1.113318950E-001 1.090039164E-001 1.065513045E-001 1.040943712E-001
 1.016139090E-001 9.902810305E-002 9.644229710E-002 9.380476177E-002 9.108916670E-002
 8.837357908E-002 8.557819575E-002 8.273278922E-002 7.988738269E-002 7.693438232E-002
 7.395946234E-002 7.097851485E-002 6.787477434E-002 6.477102637E-002 6.163372844E-002
 5.840228871E-002 5.517084897E-002 5.187913030E-002 4.852178693E-002 4.516444728E-002
 4.172125086E-002 3.824034706E-002 3.475944325E-002 3.116891719E-002 2.756766416E-002
 2.395162359E-002 2.023382485E-002 1.651602611E-002 1.275994256E-002 8.930501528E-003
 5.101060960E-003 1.212448697E-003 -2.722848672E-003 -6.658146158E-003 -1.067010313E-002
 -1.470431313E-002 -1.873852499E-002 -2.286277153E-002 -2.698783018E-002 -3.112971783E-002
 -3.533603996E-002 -3.954236209E-002 -4.377852753E-002 -4.805538431E-002 -5.233224109E-002
 -5.664617941E-002 -6.098104641E-002 -6.531591713E-002 -6.968832016E-002 -7.406708598E-002
 -7.844784856E-002 -8.285462856E-002 -8.726140857E-002 -9.167112410E-002 -9.608814120E-002
 -1.005051583E-001 -1.049173176E-001 -1.093246862E-001 -1.137320548E-001 -1.181169525E-001
 -1.224930957E-001 -1.268692315E-001 -1.311932951E-001 -1.355137676E-001 -1.398219466E-001
 -1.440612227E-001 -1.483005136E-001 -1.524994075E-001 -1.566287726E-001 -1.607581377E-001
 -1.648057699E-001 -1.687950492E-001 -1.727843285E-001 -1.766357422E-001 -1.804525852E-001
 -1.842662245E-001 -1.878768951E-001 -1.914875805E-001 -1.950421929E-001 -1.984107792E-001
 -2.017793655E-001 -2.050233334E-001 -2.081135362E-001 -2.112037390E-001 -2.140839100E-001
 -2.168576568E-001 -2.196314037E-001 -2.220942080E-001 -2.245144993E-001 -2.268973291E-001
 -2.289264500E-001 -2.309555858E-001 -2.328516394E-001 -2.344540209E-001 -2.360564023E-001
 -2.374151647E-001 -2.385559827E-001 -2.396968007E-001 -2.404712886E-001 -2.411196530E-001
 -2.417680174E-001 -2.419164032E-001 -2.420439124E-001 -2.420757413E-001 -2.416594326E-001
 -2.412431240E-001 -2.406065911E-001 -2.396284938E-001 -2.386503816E-001 -2.373234928E-001
 -2.357717454E-001 -2.342200130E-001 -2.321919948E-001 -2.300623059E-001 -2.279095203E-001
 -2.252040207E-001 -2.224985212E-001 -2.196483016E-001 -2.163777798E-001 -2.131072581E-001
 -2.095790952E-001 -2.057629526E-001 -2.019468099E-001 -1.977734417E-001 -1.934382468E-001
 -1.891030520E-001 -1.843300462E-001 -1.795106828E-001 -1.746382713E-001 -1.693777740E-001
 -1.641172767E-001 -1.587247401E-001 -1.530716419E-001 -1.474185437E-001 -1.415791363E-001
 -1.355887502E-001 -1.295983642E-001 -1.233946234E-001 -1.171265692E-001 -1.108585224E-001
 -1.043799669E-001 -9.789808095E-002 -9.138650447E-002 -8.475649357E-002 -7.812647521E-002
 -7.146259397E-002 -6.475125253E-002 -5.803991109E-002 -5.131936818E-002 -4.459348321E-002
 -3.786759451E-002 -3.118483908E-002 -2.450977825E-002
 1.507403731E+000 8.585228324E-001 2.096419334E-001 -2.210747152E-005 -5.476649676E-005
 -8.742552018E-005 -1.746094349E-004 -2.683296334E-004 -3.682491370E-004 -5.188474315E-004
 -6.694457261E-004 -8.372034645E-004 -1.040595118E-003 -1.243986888E-003 -1.473795855E-003
 -1.726011978E-003 -1.978228102E-003 -2.264500596E-003 -2.561699366E-003 -2.858897904E-003
 -3.196277888E-003 -3.534766613E-003 -3.880396485E-003 -4.256633576E-003 -4.632870201E-003
 -5.023031030E-003 -5.433629267E-003 -5.844227970E-003 -6.274173502E-003 -6.715914235E-003
 -7.157654967E-003 -7.622909267E-003 -8.092733100E-003 -8.563899435E-003 -9.058905765E-003
 -9.553912096E-003 -1.005497016E-002 -1.057244092E-002 -1.108991168E-002 -1.161702070E-002
 -1.215434819E-002 -1.269167569E-002 -1.324124914E-002 -1.379603427E-002 -1.435081940E-002
 -1.491951197E-002 -1.548945438E-002 -1.606113277E-002 -1.664407924E-002 -1.722702570E-002
 -1.781381294E-002 -1.840775087E-002 -1.900168881E-002 -1.960076764E-002 -2.020379156E-002
 -2.080681734E-002 -2.141554281E-002 -2.202585898E-002 -2.263617702E-002 -2.325204946E-002
 -2.386793308E-002 -2.448467724E-002 -2.510458417E-002 -2.572449297E-002 -2.634543367E-002
 -2.696774900E-002 -2.759006247E-002 -2.821302786E-002 -2.883634716E-002 -2.945966832E-002
 -3.008264862E-002 -3.070557304E-002 -3.132836148E-002 -3.194952384E-002 -3.257068619E-002
 -3.319094330E-002 -3.380902112E-002 -3.442709520E-002 -3.504295647E-002 -3.565668687E-002
 -3.627041727E-002 -3.688010573E-002 -3.748826683E-002 -3.809642419E-002 -3.869819269E-002
 -3.929956630E-002 -3.989966959E-002 -4.049299657E-002 -4.108632728E-002 -4.167622700E-002
 -4.226039350E-002 -4.284455627E-002 -4.342255741E-002 -4.399627075E-002 -4.456998408E-002
 -4.513440654E-002 -4.569659382E-002 -4.625849426E-002 -4.680785164E-002 -4.735721275E-002
 -4.790324345E-002 -4.843863100E-002 -4.897401854E-002 -4.950252175E-002 -5.002275109E-002
 -5.054298416E-002 -5.105220899E-002 -5.155602470E-002 -5.205984041E-002 -5.254802108E-002
 -5.303419754E-002 -5.351844802E-002 -5.398580059E-002 -5.445315689E-002 -5.491410941E-002
 -5.536134914E-002 -5.580858886E-002 -5.624438822E-002 -5.667021871E-002 -5.709604919E-002
 -5.750492588E-002 -5.790816247E-002 -5.831140280E-002 -5.869148299E-002 -5.907076597E-002
 -5.944544822E-002 -5.979954824E-002 -6.015364453E-002 -6.049716473E-002 -6.082471833E-002
 -6.115227193E-002 -6.146276370E-002 -6.176254898E-002 -6.206233799E-002 -6.233792752E-002
 -6.260858476E-002 -6.287781894E-002 -6.311809272E-002 -6.335835904E-002 -6.359031051E-002
 -6.379894167E-002 -6.400756538E-002 -6.420037895E-002 -6.437599659E-002 -6.455160677E-002
 -6.470348686E-002 -6.484493613E-002 -6.498639286E-002 -6.509558111E-002 -6.520161778E-002
 -6.530301273E-002 -6.537244469E-002 -6.544187665E-002 -6.549835205E-002 -6.552999467E-002
 -6.556164473E-002 -6.557160616E-002 -6.556445360E-002 -6.555730850E-002 -6.551922858E-002
 -6.547217816E-002 -6.542512029E-002 -6.533766538E-002 -6.524983793E-002 -6.515336782E-002
 -6.502380222E-002 -6.489424407E-002 -6.474674493E-002 -6.457479298E-002 -6.440284848E-002
 -6.420332193E-002 -6.398823112E-002 -6.377314031E-002 -6.352078915E-002 -6.326212734E-002
 -6.300033629E-002 -6.269767135E-002 -6.239501387E-002 -6.207966805E-002 -6.173285842E-002
 -6.138605252E-002 -6.101700664E-002 -6.062601879E-002 -6.023503095E-002 -5.981241539E-002
 -5.937746167E-002 -5.894250423E-002 -5.846679211E-002 -5.798826739E-002 -5.750324950E-002
 -5.698186904E-002 -5.646048859E-002 -5.592371896E-002 -5.536045879E-002 -5.479719490E-002
 -5.421018600E-002 -5.360622704E-002 -5.300226435E-002 -5.236703530E-002 -5.172396079E-002
 -5.108030885E-002 -5.039998144E-002 -4.971965402E-002 -4.903123528E-002 -4.831596091E-002
 -4.760068282E-002 -4.687090218E-002 -4.612322524E-002 -4.537555203E-002 -4.460835084E-002
 -4.383125529E-002 -4.305415973E-002 -4.225415736E-002 -4.145101830E-002 -4.064574465E-002
 -3.982026502E-002 -3.899478540E-002 -3.816360980E-002 -3.731985018E-002 -3.647609428E-002
 -3.562507406E-002 -3.476755321E-002 -3.391003236E-002 -3.304577991E-002 -3.217921034E-002
 -3.131263703E-002 -3.044230677E-002 -2.957182191E-002 -2.870157547E-002 -2.783245407E-002
 -2.696333081E-002 -2.609694190E-002 -2.523478866E-002 -2.437263355E-002 -2.351815067E-002
 -2.266861126E-002 -2.181906998E-002 -2.098468132E-002 -2.015352622E-002 -1.932334341E-002
 -1.851639897E-002 -1.770945452E-002 -1.691017486E-002 -1.613315195E-002 -1.535612997E-002
 -1.459586434E-002 -1.385433041E-002 -1.311279740E-002 -1.239937078E-002 -1.169867907E-002
 -1.099798642E-002 -1.033875626E-002 -9.683915414E-003 -9.035151452E-003 -8.430832997E-003
 -7.826513611E-003 -7.240591105E-003 -6.690971088E-003 -6.141350605E-003 -5.623970181E-003
 -5.132716615E-003 -4.641463514E-003 -4.197421484E-003 -3.767609363E-003 -3.337797243E-003
 -2.970906673E-003 -2.605010523E-003 -2.252290957E-003 -1.952119637E-003 -1.651948318E-003
 -1.379629946E-003 -1.146331662E-003 -9.130334365E-004 -7.223390276E-004 -5.563937593E-004
 -3.904484620E-004 -2.814989130E-004 -1.827191882E-004
 3.010379374E-001 9.542183876E-001 1.607398868E+000 1.789531708E+000 1.746840715E+000
 1.704149842E+000 1.661949635E+000 1.619808316E+000 1.577754259E+000 1.536413908E+000
 1.495073438E+000 1.454065919E+000 1.413749218E+000 1.373432636E+000 1.333761215E+000
 1.294637084E+000 1.255512953E+000 1.217395186E+000 1.179600120E+000 1.141805053E+000
 1.105404735E+000 1.069042921E+000 1.032965183E+000 9.981051683E-001 9.632451534E-001
 9.290098548E-001 8.956915140E-001 8.623731732E-001 8.300223947E-001 7.982615829E-001
 7.665007114E-001 7.360379100E-001 7.058273554E-001 6.756979823E-001 6.470094323E-001
 6.183208227E-001 5.900302529E-001 5.628194213E-001 5.356085896E-001 5.090861320E-001
 4.832934141E-001 4.575006664E-001 4.326527715E-001 4.082069993E-001 3.837612569E-001
 3.604775667E-001 3.372983932E-001 3.142766058E-001 2.922763228E-001 2.702760398E-001
 2.486555576E-001 2.277418226E-001 2.068280876E-001 1.864755005E-001 1.665538996E-001
 1.466322988E-001 1.274109930E-001 1.083853245E-001 8.935965598E-002 7.113366574E-002
 5.290954560E-002 3.483692929E-002 1.732175983E-002 -1.934093016E-004 -1.744214259E-002
 -3.433732316E-002 -5.123249814E-002 -6.778166443E-002 -8.414103836E-002 -1.005004048E-001
 -1.164660677E-001 -1.323685944E-001 -1.482411623E-001 -1.637589484E-001 -1.792767197E-001
 -1.947008818E-001 -2.099000961E-001 -2.250992954E-001 -2.401662618E-001 -2.551061511E-001
 -2.700459957E-001 -2.848343551E-001 -2.995654643E-001 -3.142966032E-001 -3.288734853E-001
 -3.434408605E-001 -3.579881489E-001 -3.724283874E-001 -3.868685961E-001 -4.012722671E-001
 -4.156147242E-001 -4.299571812E-001 -4.442549646E-001 -4.585216939E-001 -4.727884233E-001
 -4.870065153E-001 -5.012128949E-001 -5.154181123E-001 -5.295723677E-001 -5.437266231E-001
 -5.578690171E-001 -5.719733834E-001 -5.860777497E-001 -6.001571417E-001 -6.142065525E-001
 -6.282559633E-001 -6.422613263E-001 -6.562450528E-001 -6.702287197E-001 -6.841394305E-001
 -6.980408430E-001 -7.119313478E-001 -7.257267833E-001 -7.395222187E-001 -7.532751560E-001
 -7.669369578E-001 -7.805988193E-001 -7.941707969E-001 -8.076644540E-001 -8.211581707E-001
 -8.344955444E-001 -8.477809429E-001 -8.610663414E-001 -8.741069436E-001 -8.871390820E-001
 -9.001155496E-001 -9.128427505E-001 -9.255698919E-001 -9.381530285E-001 -9.505189061E-001
 -9.628847241E-001 -9.749909043E-001 -9.869343638E-001 -9.988777637E-001 -1.010409355E+000
 -1.021857142E+000 -1.033278227E+000 -1.044158459E+000 -1.055038691E+000 -1.065749884E+000
 -1.075987101E+000 -1.086224318E+000 -1.096108913E+000 -1.105609775E+000 -1.115110636E+000
 -1.124035001E+000 -1.132706165E+000 -1.141377211E+000 -1.149207354E+000 -1.156955242E+000
 -1.164571881E+000 -1.171285391E+000 -1.177998781E+000 -1.184320569E+000 -1.189891815E+000
 -1.195462942E+000 -1.200327396E+000 -1.204634190E+000 -1.208941102E+000 -1.212173343E+000
 -1.215093613E+000 -1.218013883E+000 -1.219431877E+000 -1.220836401E+000 -1.221897960E+000
 -1.221646547E+000 -1.221395135E+000 -1.220386744E+000 -1.218346477E+000 -1.216306210E+000
 -1.213028431E+000 -1.209052086E+000 -1.205075741E+000 -1.199320793E+000 -1.193264604E+000
 -1.187049866E+000 -1.178766727E+000 -1.170483589E+000 -1.161519289E+000 -1.150865436E+000
 -1.140211582E+000 -1.128295779E+000 -1.115134716E+000 -1.101973653E+000 -1.086913466E+000
 -1.071112275E+000 -1.055311084E+000 -1.036922693E+000 -1.018355489E+000 -9.993530512E-001
 -9.779105783E-001 -9.564681053E-001 -9.339374900E-001 -9.095337391E-001 -8.851300478E-001
 -8.589594364E-001 -8.315275908E-001 -8.040958047E-001 -7.742140889E-001 -7.437181473E-001
 -7.131744623E-001 -6.796122193E-001 -6.460499763E-001 -6.117865443E-001 -5.751969218E-001
 -5.386072993E-001 -5.007007718E-001 -4.611692727E-001 -4.216378331E-001 -3.802447319E-001
 -3.379082680E-001 -2.955718040E-001 -2.509380281E-001 -2.059901953E-001 -1.608166099E-001
 -1.135115772E-001 -6.620655209E-002 -1.826528832E-002 3.108020872E-002 8.042570204E-002
 1.306481063E-001 1.816549599E-001 2.326617986E-001 2.845752537E-001 3.368008435E-001
 3.890264630E-001 4.419420063E-001 4.948863685E-001 5.478601456E-001 6.009715199E-001
 6.540829539E-001 7.070269585E-001 7.597112656E-001 8.123955727E-001 8.644402027E-001
 9.160724282E-001 9.677047133E-001 1.017942429E+000 1.067882538E+000 1.117728829E+000
 1.165333748E+000 1.212938547E+000 1.259785295E+000 1.304430366E+000 1.349075317E+000
 1.392048120E+000 1.433151364E+000 1.474254727E+000 1.512547255E+000 1.549566507E+000
 1.586585641E+000 1.619499087E+000 1.651977897E+000 1.683865070E+000 1.711426616E+000
 1.738988042E+000 1.764802694E+000 1.787170053E+000 1.809537530E+000 1.828940749E+000
 1.845941663E+000 1.862942696E+000 1.875781417E+000 1.887365580E+000 1.898949742E+000
 1.905261636E+000 1.911490202E+000 1.916679621E+000 1.917724848E+000 1.918770075E+000
 1.917776108E+000 1.913925529E+000 1.910074949E+000 1.903366089E+000 1.894996643E+000
 1.886627197E+000 1.874822617E+000 1.862405062E+000
